"Molecule name","OriginalSmiles","Canonical_QSARr","InChI_Code_QSARr","InChI Key_QSARr","Salt_Solvent (Concatenate)","temp","method","type","group","basicOrAcidic","pKa"
"14036","N2(=C(N1(N=CC=C1))C=CC=C2)","C1=CC=CC(=N1)N1C=CC=N1","InChI=1S/C8H7N3/c1-2-5-9-8(4-1)11-7-3-6-10-11/h1-7H","XXTPHXNBKRVYJI-UHFFFAOYSA-N","?, ?","25","spectrophotometric","a1/apparent","?, ?","basic",1.07
"17785","N1(=C(C=NC=C1)C)","CC1C=NC=CN=1","InChI=1S/C5H6N2/c1-5-4-6-2-3-7-5/h2-4H,1H3","CAWHJQAVHZEVTJ-UHFFFAOYSA-N","?, ?","25","mean from 3","b2/apparent","N(1+)-H, N(1+)-H","basic",1.42
"11267","N2(=C(N1(N=C(C)C=C1))C=CC=C2)","CC1C=CN(N=1)C1C=CC=CN=1","InChI=1S/C9H9N3/c1-8-5-7-12(11-8)9-4-2-3-6-10-9/h2-7H,1H3","IFUCYZDWJZBOPB-UHFFFAOYSA-N","?, ?","25","spectrophotometric","a1/apparent","?, ?","basic",1.36
"10109","N1(=C(C=NC=C1C)C)","CC1C=NC=C(C)N=1","InChI=1S/C6H8N2/c1-5-3-7-4-6(2)8-5/h3-4H,1-2H3","HJFZAYHYIWGLNL-UHFFFAOYSA-N","?, ?","25",,"b1/apparent","N(1+)-H, N(1+)-H","basic",2.11
"10072","N1(=C(C(=NC=C1)C)C)","CC1=NC=CN=C1C","InChI=1S/C6H8N2/c1-5-6(2)8-4-3-7-5/h3-4H,1-2H3","OXQOBQJCDNLAPO-UHFFFAOYSA-N","?, ?","25",,"b1/apparent","N(1+)-H, N(1+)-H","basic",2.24
"10651","S=C(N)C(N)CC1(=CC=CC=C1)","NC(=S)C(N)CC1C=CC=CC=1","InChI=1S/C9H12N2S/c10-8(9(11)12)6-7-4-2-1-3-5-7/h1-5,8H,6,10H2,(H2,11,12)","BGISTHSWHFVQLY-UHFFFAOYSA-N","?, ?","24","mean from 2","a/thermodynamic","?, SCNH3(1+)","basic",7.15
"17529","S=C(N)CN","NCC(N)=S","InChI=1S/C2H6N2S/c3-1-2(4)5/h1,3H2,(H2,4,5)","HFCQQLLYVUSCRE-UHFFFAOYSA-N","?, ?","24","conductometric","a2/apparent","NH3(1+)CH2, -CSNH3(1+)","basic",7.27
"12900","N1(=C(C(=NC=C1C)C)C)","CC1=NC=C(C)N=C1C","InChI=1S/C7H10N2/c1-5-4-8-6(2)7(3)9-5/h4H,1-3H3","IAEGWXHKWJGQAZ-UHFFFAOYSA-N","?, ?","25",,"b1/apparent","N(1+)-H, N(1+)-H","basic",2.65
"11525","S=C(N)C1(N)(CCCCC1)","NC(=S)C1(N)CCCCC1","InChI=1S/C7H14N2S/c8-6(10)7(9)4-2-1-3-5-7/h1-5,9H2,(H2,8,10)","LNZXXCPUADJELD-UHFFFAOYSA-N","?, ?","24","conductometric","a2/apparent","NH3+ C6H11, -CSNH3(1+)","basic",7.23
"13327","O=C([O-])CC1(=NC=2(C=CC=CC=2(N1)))","OC(O)=CC1NC2C=CC=CC=2N=1","InChI=1S/C9H8N2O2/c12-9(13)5-8-10-6-3-1-2-4-7(6)11-8/h1-5,12-13H,(H,10,11)","LCLJVLVNPHCQNL-UHFFFAOYSA-N","?, ?","24.9","spectrophotometric","a3/apparent","NH-C-NH(+), COOH2(+)","basic",4.1
"13455","N2(=C(N1(N=C(C)C=C1C))C=CC=C2)","CC1C=C(C)N(N=1)C1C=CC=CN=1","InChI=1S/C10H11N3/c1-8-7-9(2)13(12-8)10-5-3-4-6-11-10/h3-7H,1-2H3","DQJACDPPPOAZOZ-UHFFFAOYSA-N","?, ?","25","spectrophotometric","a1/apparent","?, ?","basic",1.89
"13280","N=2(N(C=1(NN=C(C=1)C))C(C)=CC=2C)","CC1C=C(NN=1)N1N=C(C)C=C1C","InChI=1S/C9H12N4/c1-6-5-9(11-10-6)13-8(3)4-7(2)12-13/h4-5H,1-3H3,(H,10,11)","JVTUGNXBSAHJHN-UHFFFAOYSA-N","?, ?","25","potentiometric","a1/apparent","?, ?","basic",2.23
"14974","S1(C(=NC2(=C1C=CC=C2))C3(=C(N)C=CC=C3))","NC1C=CC=CC=1C1=NC2C=CC=CC=2S1","InChI=1S/C13H10N2S/c14-10-6-2-1-5-9(10)13-15-11-7-3-4-8-12(11)16-13/h1-8H,14H2","RAASYFFQTCWEKN-UHFFFAOYSA-N","?, ?","26.9","spectrophotometric","a2/apparent","NH3(+), NH(+)","basic",2.6
"15888","N2(=NN(C1(=CC=CC=C1))C(=N2)C=CC3(=CC=C(N(C)C)C=C3))","CN(C)C1C=CC(C=CC2=NN=NN2C2C=CC=CC=2)=CC=1","InChI=1S/C17H17N5/c1-21(2)15-11-8-14(9-12-15)10-13-17-18-19-20-22(17)16-6-4-3-5-7-16/h3-13H,1-2H3","DWDLRYXCDMZXJX-UHFFFAOYSA-N","?, ?","25","spectrophotometric","a2/apparent","?, ?","basic",3.47
"16579","S(=O)(=O)(NC1(=NC(=CC(=N1)C)C))C2(=CC=C(N)C=C2)","CC1C=C(C)N=C(NS(=O)(=O)C2C=CC(N)=CC=2)N=1","InChI=1S/C12H14N4O2S/c1-8-7-9(2)15-12(14-8)16-19(17,18)11-5-3-10(13)4-6-11/h3-7H,13H2,1-2H3,(H,14,15,16)","ASWVTGNCAZCNNR-UHFFFAOYSA-N","?, ?","25","potentiometric","b/apparent","?, ?","basic",2.35
"12881","N1(=CC=C(N(C)C)C=C1)","CN(C)C1C=CN=CC=1","InChI=1S/C7H10N2/c1-9(2)7-3-5-8-6-4-7/h3-6H,1-2H3","VHYFNPMBLIVWCW-UHFFFAOYSA-N","?, ?","24","mean from 7","b1/apparent","N-H, N-H","basic",9.7
"13079","O=C([O-])C1(=CN=CC=C1)","OC(=O)C1C=NC=CC=1","InChI=1S/C6H5NO2/c8-6(9)5-2-1-3-7-4-5/h1-4H,(H,8,9)","PVNIIMVLHYAWGP-UHFFFAOYSA-N","?, ?","24","mean from 10","a2/apparent","COOH, CO","basic",4.83
"14755","O=C(NCC)C=1(C=2(NC(C=1C)=CC5(=NC(=CC=4(NC(C=C3(N=C(C=2CC(=O)OC)C(C3(C))CCC(=O)OC))=C(C=4(C=C))C))C(=C5CC)C)))","CC1C(CC=C(O)OC)C2=NC1=CC1NC(C=C3N=C(C=C4NC(=C2C=C(O)OC)C(C(=O)NCC)=C4C)C(CC)=C3C)=C(C=C)C=1C |c:17,21,24,27,t:12|","InChI=1S/C38H45N5O5/c1-10-23-19(4)27-16-29-21(6)25(13-14-33(44)47-8)36(42-29)26(15-34(45)48-9)37-35(38(46)39-12-3)22(7)30(43-37)18-32-24(11-2)20(5)28(41-32)17-31(23)40-27/h10,14-18,21,25,40,43-45H,1,11-13H2,2-9H3,(H,39,46)/b27-16?,28-17-,29-16-,30-18-,31-17?,32-18?,33-14?,34-15+,36-26?,37-26-","KWVHPLQCBLMWOW-KYZXNLRJSA-N","?, ?",,"spectrophotometric","a2/apparent","?, ?","basic",2.7
"16718","ClC3(=CC=C(C=2(OC(C1(=CC=C(N)C=C1))=NC=2))C=C3)","NC1C=CC(=CC=1)C1=NC=C(O1)C1C=CC(Cl)=CC=1","InChI=1S/C15H11ClN2O/c16-12-5-1-10(2-6-12)14-9-18-15(19-14)11-3-7-13(17)8-4-11/h1-9H,17H2","VLQAOLSYORUGHK-UHFFFAOYSA-N","?, ?","25","spectrophotometric","b1/apparent","?, ?","basic",2.87
"17207","N3(=C(C1(=NC=2(C=CC=CC=2(N1))))C=CC=C3)","C1=CC=CC(=N1)C1NC2C=CC=CC=2N=1","InChI=1S/C12H9N3/c1-2-6-10-9(5-1)14-12(15-10)11-7-3-4-8-13-11/h1-8H,(H,14,15)","YNFBMDWHEHETJW-UHFFFAOYSA-N","?, ?","25","spectrophotometric","a2/apparent","NH, NH","basic",4.41
"13450","N2(=C(C1(=NN(C)C(=C1)C))C=CC=C2)","CC1=CC(=NN1C)C1C=CC=CN=1","InChI=1S/C10H11N3/c1-8-7-10(12-13(8)2)9-5-3-4-6-11-9/h3-7H,1-2H3","YHZHWKHJKNRMRE-UHFFFAOYSA-N","?, ?","25","potentiometric","a1/apparent","?, ?","basic",4.52
"16333","N3(=C(NCC1(=CC=CC=C1))C=2(N=CNC=2N=C3))","C(NC1=NC=NC2NC=NC1=2)C1C=CC=CC=1","InChI=1S/C12H11N5/c1-2-4-9(5-3-1)6-13-11-10-12(15-7-14-10)17-8-16-11/h1-5,7-8H,6H2,(H2,13,14,15,16,17)","NWBJYWHLCVSVIJ-UHFFFAOYSA-N","?, ?","30",,"a1/apparent","?, ?","basic",4.09
"14975","S1(C(=NC2(=C1C=CC=C2))C3(=CC=C(N)C=C3))","NC1C=CC(=CC=1)C1=NC2C=CC=CC=2S1","InChI=1S/C13H10N2S/c14-10-7-5-9(6-8-10)13-15-11-3-1-2-4-12(11)16-13/h1-8H,14H2","WKRCOZSCENDENK-UHFFFAOYSA-N","?, ?","26.9","spectrophotometric","a2/apparent","NH3(+), NH(+)","basic",3.0
"15066","N(C=2(C1(=C(N(C)C)C=CC=C1C=CC=2)))(C)C","CN(C)C1=CC=CC2=CC=CC(=C21)N(C)C","InChI=1S/C14H18N2/c1-15(2)12-9-5-7-11-8-6-10-13(14(11)12)16(3)4/h5-10H,1-4H3","GJFNRSDCSTVPCJ-UHFFFAOYSA-N","?, ?","24","mean from 4","a1/apparent","H, R3NH%+&","basic",12.13
"10986","N=2(NC(C=1(NN=C(C=1)C))=CC=2C)","CC1C=C(NN=1)C1=CC(C)=NN1","InChI=1S/C8H10N4/c1-5-3-7(11-9-5)8-4-6(2)10-12-8/h3-4H,1-2H3,(H,9,11)(H,10,12)","QPMQZGLMSZICKZ-UHFFFAOYSA-N","?, ?","25","spectrophotometric","a1/apparent","?, ?","basic",2.8
"11362","N12(CN3(CN(C1)CN(C2)C3))","C1N2CN3CN1CN(C2)C3","InChI=1S/C6H12N4/c1-7-2-9-4-8(1)5-10(3-7)6-9/h1-6H2","VKYKSIONXSXAKP-UHFFFAOYSA-N","?, ?","25","mean from 3","a1/apparent","?, ?","basic",4.95
"12455","[O-]C1(=NC(=CN=C1C2(=CC=CC=C2))C)","CC1C=NC(=C(O)N=1)C1C=CC=CC=1","InChI=1S/C11H10N2O/c1-8-7-12-10(11(14)13-8)9-5-3-2-4-6-9/h2-7H,1H3,(H,13,14)","GVDVWMAMSQPUDQ-UHFFFAOYSA-N","?, ?","25","spectrophotometric","a3/apparent","?, ?","basic",9.3
"14973","S1(C(=NC2(=C1C=CC=C2))C3(=CC(N)=CC=C3))","NC1C=C(C=CC=1)C1=NC2C=CC=CC=2S1","InChI=1S/C13H10N2S/c14-10-5-3-4-9(8-10)13-15-11-6-1-2-7-12(11)16-13/h1-8H,14H2","MKMRZZJJDIBAJF-UHFFFAOYSA-N","?, ?","26.9","spectrophotometric","a2/apparent","NH3(+), NH(+)","basic",3.4
"15311","O1(C(=NC=C1C2(=CC=C(OC)C=C2))C3(=CC=C(N)C=C3))","COC1=CC=C(C=C1)C1=CN=C(O1)C1=CC=C(N)C=C1","InChI=1S/C16H14N2O2/c1-19-14-8-4-11(5-9-14)15-10-18-16(20-15)12-2-6-13(17)7-3-12/h2-10H,17H2,1H3","AAQZLMTVPPRBEI-UHFFFAOYSA-N","?, ?","25","spectrophotometric","b1/apparent","?, ?","basic",3.22
"12064","N1(=C(N=CC2(=C1N=CN2))N)","NC1=NC2N=CNC=2C=N1","InChI=1S/C5H5N5/c6-5-7-1-3-4(10-5)9-2-8-3/h1-2H,(H3,6,7,8,9,10)","MWBWWFOAEOYUST-UHFFFAOYSA-N","?, ?","20","potentiometric","a2/apparent","?, ?","basic",3.8
"16717","[Br]C3(=CC=C(C=2(OC(C1(=CC=C(N)C=C1))=CN=2))C=C3)","NC1C=CC(=CC=1)C1=CN=C(O1)C1C=CC(Br)=CC=1","InChI=1S/C15H11BrN2O/c16-12-5-1-11(2-6-12)15-18-9-14(19-15)10-3-7-13(17)8-4-10/h1-9H,17H2","IYHAWZCHVKFEDL-UHFFFAOYSA-N","?, ?","25","spectrophotometric","b1/apparent","?, ?","basic",3.51
"16716","ClC3(=CC=C(C=2(OC(C1(=CC=C(N)C=C1))=CN=2))C=C3)","NC1C=CC(=CC=1)C1=CN=C(O1)C1C=CC(Cl)=CC=1","InChI=1S/C15H11ClN2O/c16-12-5-1-11(2-6-12)15-18-9-14(19-15)10-3-7-13(17)8-4-10/h1-9H,17H2","HIYDHVUCABMKBF-UHFFFAOYSA-N","?, ?","25","spectrophotometric","b1/apparent","?, ?","basic",3.52
"15769","P(=O)(O)([O-])COCCN2(C1(=NC=NC(=C1N=C2)N))","NC1N=CN=C2C=1N=CN2CCOCP(O)(O)=O","InChI=1S/C8H12N5O4P/c9-7-6-8(11-3-10-7)13(4-12-6)1-2-17-5-18(14,15)16/h3-4H,1-2,5H2,(H2,9,10,11)(H2,14,15,16)","SUPKOOSCJHTBAH-UHFFFAOYSA-N","?, ?","25","mean from 2","a1/apparent","N-H, (N7)-H","basic",4.18
"15545","O1(C(=NC=C1C2(=CC=C(N)C=C2))C3(=CC=CC=C3))","NC1C=CC(=CC=1)C1=CN=C(O1)C1C=CC=CC=1","InChI=1S/C15H12N2O/c16-13-8-6-11(7-9-13)14-10-17-15(18-14)12-4-2-1-3-5-12/h1-10H,16H2","WSAIAGGMIUELOT-UHFFFAOYSA-N","?, ?","25","spectrophotometric","b1/apparent","?, ?","basic",3.68
"10089","N1(=CC(NC)=CC=C1)","CNC1C=NC=CC=1","InChI=1S/C6H8N2/c1-7-6-3-2-4-8-5-6/h2-5,7H,1H3","DBGFNLVRAFYZBI-UHFFFAOYSA-N","?, ?","20","spectrophotometric","a1/apparent","?, ?","basic",6.41
"15100","O=C(C1(=CC=C(N)C=C1))C2(=CC=C(N)C=C2)","NC1C=CC(=CC=1)C(=O)C1C=CC(N)=CC=1","InChI=1S/C13H12N2O/c14-11-5-1-9(2-6-11)13(16)10-3-7-12(15)8-4-10/h1-8H,14-15H2","ZLSMCQSGRWNEGX-UHFFFAOYSA-N","?, ?","25","spectrophotometric","a2/thermodynamic","?, ?","basic",2.92
"13145","[N+](=NC1(=NC=CN1C))=[N-]","CN1C=CN=C1N=[N+]=N","InChI=1S/C4H6N5/c1-9-3-2-6-4(9)7-8-5/h2-3,5H,1H3/q+1","LREKLDJLTUKVIF-UHFFFAOYSA-N","?, ?","20",,"a1/apparent","?, ?","basic",4.05
"15310","O1(C(=NC=C1C2(=CC=C(N)C=C2))C3(=CC=C(OC)C=C3))","COC1C=CC(=CC=1)C1=NC=C(O1)C1C=CC(N)=CC=1","InChI=1S/C16H14N2O2/c1-19-14-8-4-12(5-9-14)16-18-10-15(20-16)11-2-6-13(17)7-3-11/h2-10H,17H2,1H3","RBPSHBQPBQQNMK-UHFFFAOYSA-N","?, ?","25","spectrophotometric","b1/apparent","?, ?","basic",3.71
"12355","N=1(N(C(C)=CC=1C)CC2(=NNC(=C2)C))","CC1C=C(C)N(CC2C=C(C)NN=2)N=1","InChI=1S/C10H14N4/c1-7-5-10(12-11-7)6-14-9(3)4-8(2)13-14/h4-5H,6H2,1-3H3,(H,11,12)","CRQOUESQZJGSEM-UHFFFAOYSA-N","?, ?","25","potentiometric","a1/apparent","?, ?","basic",3.5
"12892","N1(=CC(N(C)C)=CC=C1)","CN(C)C1C=NC=CC=1","InChI=1S/C7H10N2/c1-9(2)7-4-3-5-8-6-7/h3-6H,1-2H3","JEDHEXUPBRMUMB-UHFFFAOYSA-N","?, ?","20","spectrophotometric","a1/apparent","?, ?","basic",6.67
"11826","O=C(NN)C1(=CN=CC=C1)","NNC(=O)C1C=CC=NC=1","InChI=1S/C6H7N3O/c7-9-6(10)5-2-1-3-8-4-5/h1-4H,7H2,(H,9,10)","KFUSANSHCADHNJ-UHFFFAOYSA-N","?, ?","23","mean from 3","b1/apparent","?, ?","basic",3.27
"15995","N=3(C2(=C1(C(N=CC=C1)=CC=C2C=CC=3)))","C1=CC=NC2=CC=C3C=CC=NC3=C21","InChI=1S/C12H8N2/c1-3-9-5-6-11-10(4-2-7-13-11)12(9)14-8-1/h1-8H","OZKOMUDCMCEDTM-UHFFFAOYSA-N","?, ?","20","spectrophotometric","a2/apparent","?, ?","basic",4.0
"14584","O=C(NN)C1(=C(N)C=CC=C1)","NC1C=CC=CC=1C(=O)NN","InChI=1S/C7H9N3O/c8-6-4-2-1-3-5(6)7(11)10-9/h1-4H,8-9H2,(H,10,11)","GRWMSCBKWMQPON-UHFFFAOYSA-N","?, ?","25","potentiometric","a2/apparent","?, ?","basic",3.47
"10989","N1(=C(N(C)C=C1)C2(=NC=CN2C))","CN1C=CN=C1C1=NC=CN1C","InChI=1S/C8H10N4/c1-11-5-3-9-7(11)8-10-4-6-12(8)2/h3-6H,1-2H3","KMRPQHUALQQSPI-UHFFFAOYSA-N","?, ?","25","potentiometric","a1/apparent","?, ?","basic",4.91
"15257","N(C2(=CC=1(C(=CC=CC=1)C=C2)))CCNC4(=CC=3(C(=CC=CC=3)C=C4))","C(CNC1=CC2=CC=CC=C2C=C1)NC1=CC2=CC=CC=C2C=C1","InChI=1S/C22H20N2/c1-3-7-19-15-21(11-9-17(19)5-1)23-13-14-24-22-12-10-18-6-2-4-8-20(18)16-22/h1-12,15-16,23-24H,13-14H2","UQNYJPVIIOGVSR-UHFFFAOYSA-N","?, ?",,"potentiometric","a2/apparent","?, ?","basic",3.7
"10067","NC1(=C(N)C=CC=C1)","NC1C=CC=CC=1N","InChI=1S/C6H8N2/c7-5-3-1-2-4-6(5)8/h1-4H,7-8H2","GEYOCULIXLDCMW-UHFFFAOYSA-N","?, ?","22","mean from 6","a2/apparent","?, ?","basic",4.43
"15068","NC2(=C(C1(=C(N)C=CC=C1C))C(=CC=C2)C)","CC1=CC=CC(N)=C1C1=C(N)C=CC=C1C","InChI=1S/C14H16N2/c1-9-5-3-7-11(15)13(9)14-10(2)6-4-8-12(14)16/h3-8H,15-16H2,1-2H3","MCUUKQCKNKUMBP-UHFFFAOYSA-N","?, ?","25","potentiometric","a2/apparent","?, ?","basic",3.7
"11034","N2(=C(C1(=NC=CC=C1))C=CC=C2)","C1=CC=CN=C1C1C=CC=CN=1","InChI=1S/C10H8N2/c1-3-7-11-9(5-1)10-6-2-4-8-12-10/h1-8H","ROFVEXUMMXZLPA-UHFFFAOYSA-N","?, ?","23","mean from 20","a1/apparent","N-H+, NH","basic",4.42
"11047","N2(=C(C1(=CC=NC=C1))C=CC=C2)","C1=CN=CC=C1C1C=CC=CN=1","InChI=1S/C10H8N2/c1-2-6-12-10(3-1)9-4-7-11-8-5-9/h1-8H","RMHQDKYZXJVCME-UHFFFAOYSA-N","?, ?","20","potentiometric","a2/apparent","?, ?","basic",4.77
"14012","N2(=C(C1(=NC=CN1))C=CC=C2)","C1=CC=CN=C1C1NC=CN=1","InChI=1S/C8H7N3/c1-2-4-9-7(3-1)8-10-5-6-11-8/h1-6H,(H,10,11)","SZXUTTGMFUSMCE-UHFFFAOYSA-N","?, ?","25","potentiometric","a2/apparent","?, ?","basic",5.46
"17214","N3(=CC(C1(=NC=2(C=CC=CC=2(N1))))=CC=C3)","C1=NC=CC=C1C1NC2C=CC=CC=2N=1","InChI=1S/C12H9N3/c1-2-6-11-10(5-1)14-12(15-11)9-4-3-7-13-8-9/h1-8H,(H,14,15)","BOUOQESVDURNSB-UHFFFAOYSA-N","?, ?","25","spectrophotometric","a2/apparent","NH, NH","basic",4.53
"16003","N=3(C=2(C(=C1(C(N=CC=C1)=CC=2))C=CC=3))","C1=CC=NC2=CC=C3N=CC=CC3=C21","InChI=1S/C12H8N2/c1-3-9-10-4-2-8-14-12(10)6-5-11(9)13-7-1/h1-8H","DATYUTWESAKQQM-UHFFFAOYSA-N","?, ?","20","potentiometric","a2/apparent","?, ?","basic",4.0
"13818","N=2(C=1(C(=C(N)C=CC=1)C=CC=2))","NC1C=CC=C2N=CC=CC2=1","InChI=1S/C9H8N2/c10-8-4-1-5-9-7(8)3-2-6-11-9/h1-6H,10H2","XMIAFAKRAAMSGX-UHFFFAOYSA-N","?, ?","20","potentiometric","a2/apparent","?, ?","basic",5.46
"16074","N2(=C(N=NC1(=CC=C(N(C)C)C=C1))C=CC=C2)","CN(C)C1C=CC(=CC=1)N=NC1C=CC=CN=1","InChI=1S/C13H14N4/c1-17(2)12-8-6-11(7-9-12)15-16-13-5-3-4-10-14-13/h3-10H,1-2H3","IOJNPSPGHUEJAQ-UHFFFAOYSA-N","?, ?","25","spectrophotometric","a2/apparent","?, ?","basic",4.5
"14585","ON=C(N)C1(=C(N)C=CC=C1)","NC1C=CC=CC=1C(N)N=O","InChI=1S/C7H9N3O/c8-6-4-2-1-3-5(6)7(9)10-11/h1-4,7H,8-9H2","OSEODLQHBXBGDE-UHFFFAOYSA-N","?, ?","20","potentiometric","a2/apparent","?, ?","basic",4.5
"15240","O=[N+]([O-])C1(=C(N=NC(=C1)C2(=CC=CC=C2))NCCN3(CCOCC3))","[O-][N+](=O)C1C=C(N=NC=1NCCN1CCOCC1)C1C=CC=CC=1","InChI=1S/C16H19N5O3/c22-21(23)15-12-14(13-4-2-1-3-5-13)18-19-16(15)17-6-7-20-8-10-24-11-9-20/h1-5,12H,6-11H2,(H,17,19)","LZQUWRDUPJMSKF-UHFFFAOYSA-N","?, ?","25","potentiometric","a1/apparent","NH(+), ?","basic",6.56
"11985","N1(C2(=C(NCC1)C=CC=C2))","C1CNC2C=CC=CC=2N1","InChI=1S/C8H10N2/c1-2-4-8-7(3-1)9-5-6-10-8/h1-4,9-10H,5-6H2","HORKYAIEVBUXGM-UHFFFAOYSA-N","?, ?","25","potentiometric","a2/thermodynamic","?, ?","basic",4.84
"16922","O3(CCN(CCNC2(=NN=C(C1(=CC=CC=C1))C=C2C#N))CC3)","N#CC1=CC(=NN=C1NCCN1CCOCC1)C1C=CC=CC=1","InChI=1S/C17H19N5O/c18-13-15-12-16(14-4-2-1-3-5-14)20-21-17(15)19-6-7-22-8-10-23-11-9-22/h1-5,12H,6-11H2,(H,19,21)","KRNDIPHOJLIHRI-UHFFFAOYSA-N","?, ?","25","spectrophotometric","a1/apparent","NH(+), ?","basic",6.5
"13811","N1(C2(=C(NCC1)C=CC(=C2)C))","CC1=CC2NCCNC=2C=C1","InChI=1S/C9H12N2/c1-7-2-3-8-9(6-7)11-5-4-10-8/h2-3,6,10-11H,4-5H2,1H3","NNGSFBDCUNKGIM-UHFFFAOYSA-N","?, ?","25","potentiometric","a2/thermodynamic","?, ?","basic",4.97
"17774","O=C1(C=CC=CC1)","OC1C=CC=CC=1","InChI=1S/C6H6O/c7-6-4-2-1-3-5-6/h1-5,7H","ISWSIDIOOBJBQZ-UHFFFAOYSA-N","?, ?","25","spectrophotometric","a1/apparent","C-H, ?","basic",9.9
"11103","O(C2(=CC=1(NCCNC=1C=C2)))C","COC1=CC2NCCNC=2C=C1","InChI=1S/C9H12N2O/c1-12-7-2-3-8-9(6-7)11-5-4-10-8/h2-3,6,10-11H,4-5H2,1H3","SXRFQDARJDXESM-UHFFFAOYSA-N","?, ?","25","potentiometric","a2/thermodynamic","?, ?","basic",5.26
"13144","N1(=C(N)C(N)=C(N)N=C1)","NC1N=CN=C(N)C=1N","InChI=1S/C4H7N5/c5-2-3(6)8-1-9-4(2)7/h1H,5H2,(H4,6,7,8,9)","MPNBXFXEMHPGTK-UHFFFAOYSA-N","?, ?",,"potentiometric","a2/apparent","?, ?","basic",5.78
"13810","N=2(C=1(C(=CC(N)=CC=1)C=CC=2))","NC1C=C2C=CC=NC2=CC=1","InChI=1S/C9H8N2/c10-8-3-4-9-7(6-8)2-1-5-11-9/h1-6H,10H2","RJSRSRITMWVIQT-UHFFFAOYSA-N","?, ?","20","potentiometric","a2/apparent","?, ?","basic",5.63
"16847","O(C2(=CC=1(C(=NC=CC=1NC(CCCN(CC)CC)C)C=C2)))C","COC1=CC2C(C=C1)=NC=CC=2NC(C)CCCN(CC)CC","InChI=1S/C19H29N3O/c1-5-22(6-2)13-7-8-15(3)21-19-11-12-20-18-10-9-16(23-4)14-17(18)19/h9-12,14-15H,5-8,13H2,1-4H3,(H,20,21)","FUPRESGGKITVQE-UHFFFAOYSA-N","?, ?, ?","30","potentiometric","a3/apparent","?, ?, ?","basic",10.2
"16692","N=1(C=3(C(N=C2(C=1C=C(N(C)C)C=C2))=CC(C)=C(C=3)N))","CC1C=C2N=C3C=CC(=CC3=NC2=CC=1N)N(C)C","InChI=1S/C15H16N4/c1-9-6-13-15(8-11(9)16)18-14-7-10(19(2)3)4-5-12(14)17-13/h4-8H,16H2,1-3H3","GLVRJEJEXGVOMJ-UHFFFAOYSA-N","?, ?","22","mean from 4","a2/apparent","?, ?","basic",7.18
"10070","NC1(=CC(N)=CC=C1)","NC1=CC(N)=CC=C1","InChI=1S/C6H8N2/c7-5-2-1-3-6(8)4-5/h1-4H,7-8H2","WZCQRUWWHSTZEM-UHFFFAOYSA-N","?, ?","21","mean from 9","a1/apparent","NH2, NH%+&","basic",5.04
"11038","N2(=CC(C1(=CN=CC=C1))=CC=C2)","C1=NC=CC=C1C1=CN=CC=C1","InChI=1S/C10H8N2/c1-3-9(7-11-5-1)10-4-2-6-12-8-10/h1-8H","OFDVABAUFQJWEZ-UHFFFAOYSA-N","?, ?","20","potentiometric","a2/apparent","?, ?","basic",4.6
"15918","O4(CCN(CC=1(N=C2(C=CC(=NN2(C=1))C3(=CC=CC=C3))))CC4)","C(C1=CN2N=C(C=CC2=N1)C1C=CC=CC=1)N1CCOCC1","InChI=1S/C17H18N4O/c1-2-4-14(5-3-1)16-6-7-17-18-15(13-21(17)19-16)12-20-8-10-22-11-9-20/h1-7,13H,8-12H2","UUUZXPBHFTUABR-UHFFFAOYSA-N","?, ?","25","potentiometric","a2/apparent","?, ?","basic",6.25
"13750","N=1(NC(C)=CC=1C2(=NC=CN2))","CC1=CC(=NN1)C1NC=CN=1","InChI=1S/C7H8N4/c1-5-4-6(11-10-5)7-8-2-3-9-7/h2-4H,1H3,(H,8,9)(H,10,11)","ZQYBSDLZFVDEAU-UHFFFAOYSA-N","?, ?","25","potentiometric","a1/apparent","?, ?","basic",6.16
"13717","ON=C(N)CCNC1(=CC=CC=C1)","NC(CCNC1C=CC=CC=1)N=O","InChI=1S/C9H13N3O/c10-9(12-13)6-7-11-8-4-2-1-3-5-8/h1-5,9,11H,6-7,10H2","SBZFGTNMIAPPGD-UHFFFAOYSA-N","?, ?","20","potentiometric","a2/apparent","?, ?","basic",5.35
"11045","N2(=CC=C(C1(=CC=NC=C1))C=C2)","C1=CN=CC=C1C1C=CN=CC=1","InChI=1S/C10H8N2/c1-5-11-6-2-9(1)10-3-7-12-8-4-10/h1-8H","MWVTWFVJZLCBMC-UHFFFAOYSA-N","?, ?","20","potentiometric","a2/apparent","?, ?","basic",4.82
"15678","P(=O)([O-])([O-])COCCN2(C1(=C(C(=NC=C1)N)N=C2))","NC1N=CC=C2C=1N=CN2CCOCP(O)(O)=O","InChI=1S/C9H13N4O4P/c10-9-8-7(1-2-11-9)13(5-12-8)3-4-17-6-18(14,15)16/h1-2,5H,3-4,6H2,(H2,10,11)(H2,14,15,16)","PRWHNPYOOJZXAT-UHFFFAOYSA-N","?, ?","25","mean from 2","a4/apparent","P(O)2O-H, (N7)-H","basic",7.87
"10937","N12(C3(=C(N(CC1)CC2)C=CC=C3))","C1CN2CCN1C1C=CC=CC2=1","InChI=1S/C10H12N2/c1-2-4-10-9(3-1)11-5-7-12(10)8-6-11/h1-4H,5-8H2","OGEXWIXITOCNRZ-UHFFFAOYSA-N","?, ?","21","potentiometric","a1/apparent","N(1+)-H, N(1+)-H","basic",5.65
"14029","N=2(C1(=C(C(N)=CC=C1)N(C=2)C))","CN1C=NC2C=CC=C(N)C1=2","InChI=1S/C8H9N3/c1-11-5-10-7-4-2-3-6(9)8(7)11/h2-5H,9H2,1H3","PRFCNMRCNKHJLO-UHFFFAOYSA-N","?, ?",,"potentiometric","a2/apparent","?, ?","basic",5.79
"15805","O=C(OCC)C1(=C(N=NC(=C1)C2(=CC=CC=C2))NCCN3(CCOCC3))","CCOC(=O)C1C=C(N=NC=1NCCN1CCOCC1)C1C=CC=CC=1","InChI=1S/C19H24N4O3/c1-2-26-19(24)16-14-17(15-6-4-3-5-7-15)21-22-18(16)20-8-9-23-10-12-25-13-11-23/h3-7,14H,2,8-13H2,1H3,(H,20,22)","UUEACXTZIFOPHV-UHFFFAOYSA-N","?, ?","25","spectrophotometric","a1/apparent","NH(+), ?","basic",6.67
"12950","OC1(=C(N)C=CC=C1N)","NC1C=CC=C(N)C=1O","InChI=1S/C6H8N2O/c7-4-2-1-3-5(8)6(4)9/h1-3,9H,7-8H2","XBQYRNRIHZDZPK-UHFFFAOYSA-N","?, ?","20","spectrophotometric","a2/apparent","?, ?","basic",5.5
"10982","N=1(N(C(C)=CC=1C2(=NC=CN2))C)","CC1=CC(=NN1C)C1NC=CN=1","InChI=1S/C8H10N4/c1-6-5-7(11-12(6)2)8-9-3-4-10-8/h3-5H,1-2H3,(H,9,10)","UTJFZATWIHYNCN-UHFFFAOYSA-N","?, ?","25","potentiometric","a1/apparent","?, ?","basic",6.2
"13726","N12(C3(=C(N(CC1)CC2)C=CC(=C3)C))","CC1=CC2=C(C=C1)N1CCN2CC1","InChI=1S/C11H14N2/c1-9-2-3-10-11(8-9)13-6-4-12(10)5-7-13/h2-3,8H,4-7H2,1H3","DZHHYOYTTKWJPK-UHFFFAOYSA-N","?, ?","21","potentiometric","a1/apparent","N(1+)-H, N(1+)-H","basic",5.83
"16848","O(C=1(C=C(NC(CCCN(CC)CC)C)C2(=NC=CC=C2(C=1))))C","COC1C=C(NC(C)CCCN(CC)CC)C2=NC=CC=C2C=1","InChI=1S/C19H29N3O/c1-5-22(6-2)12-8-9-15(3)21-18-14-17(23-4)13-16-10-7-11-20-19(16)18/h7,10-11,13-15,21H,5-6,8-9,12H2,1-4H3","QTQWMSOQOSJFBV-UHFFFAOYSA-N","?, ?, ?","20","mean from 2","a3/apparent","?, ?, ?","basic",10.35
"17823","[S-]C1(=[NH+]C=CC=N1)","SC1N=CC=CN=1","InChI=1S/C4H4N2S/c7-4-5-2-1-3-6-4/h1-3H,(H,5,6,7)","HBCQSNAFLVXVAY-UHFFFAOYSA-N","?, ?",,"potentiometric","a1/apparent","?, ?","basic",7.2