"Molecule name","OriginalSmiles","Canonical_QSARr","InChI_Code_QSARr","InChI Key_QSARr","Salt_Solvent (Concatenate)","temp","method","type","group","basicOrAcidic","pKa"
"17288","N1(=CC=NC=C1)","C1=CN=CC=N1","InChI=1S/C4H4N2/c1-2-6-4-3-5-1/h1-4H","KYQCOXFCLRTKLS-UHFFFAOYSA-N","?, ?","23","mean from 5","a2/apparent","?, ?","basic",0.57
"10073","N1(=C(C=NC(=C1)C)C)","CC1C=NC(C)=CN=1","InChI=1S/C6H8N2/c1-5-3-8-6(2)4-7-5/h3-4H,1-2H3","LCZUOKDVTBMCMX-UHFFFAOYSA-N","?, ?","25","mean from 3","b1/apparent","N(1+)-H, N(1+)-H","basic",1.95
"17658","S=C(N)C(N)(C)C","CC(C)(N)C(N)=S","InChI=1S/C4H10N2S/c1-4(2,6)3(5)7/h6H2,1-2H3,(H2,5,7)","OKWBDIKRPSGJLJ-UHFFFAOYSA-N","?, ?","24","conductometric","a2/apparent","NH3(1+)Me2, -CSNH3(1+)","basic",7.61
"12356","N=1(N(C(C)=CC=1N2(N=C(C)C=C2C))C)","CN1N=C(C=C1C)N1N=C(C)C=C1C","InChI=1S/C10H14N4/c1-7-5-9(3)14(11-7)10-6-8(2)13(4)12-10/h5-6H,1-4H3","FKIDUHCMRQJCCA-UHFFFAOYSA-N","?, ?","25","potentiometric","a1/apparent","?, ?","basic",2.19
"11515","N1(=C(C(=NC(=C1C)C)C)C)","CC1N=C(C)C(C)=NC=1C","InChI=1S/C8H12N2/c1-5-6(2)10-8(4)7(3)9-5/h1-4H3","FINHMKGKINIASC-UHFFFAOYSA-N","?, ?","25","mean from 3","b1/apparent","N(1+)-H, N(1+)-H","basic",3.36
"12354","N=1(N(C(C)=CC=1C2(=NN(C)C(=C2)C))C)","CN1N=C(C=C1C)C1C=C(C)N(C)N=1","InChI=1S/C10H14N4/c1-7-5-9(11-13(7)3)10-6-8(2)14(4)12-10/h5-6H,1-4H3","XZVBGBULHWGJLO-UHFFFAOYSA-N","?, ?","25","spectrophotometric","a1/apparent","?, ?","basic",2.22
"16719","[Br]C3(=CC=C(C=2(OC(C1(=CC=C(N)C=C1))=NC=2))C=C3)","NC1C=CC(=CC=1)C1=NC=C(O1)C1C=CC(Br)=CC=1","InChI=1S/C15H11BrN2O/c16-12-5-1-10(2-6-12)14-9-18-15(19-14)11-3-7-13(17)8-4-11/h1-9H,17H2","REIUKZJTFTUQFW-UHFFFAOYSA-N","?, ?","25","spectrophotometric","b1/apparent","?, ?","basic",2.8
"15544","O1(C(=NC=C1C2(=CC=CC=C2))C3(=CC=C(N)C=C3))","NC1C=CC(=CC=1)C1=NC=C(O1)C1C=CC=CC=1","InChI=1S/C15H12N2O/c16-13-8-6-12(7-9-13)15-17-10-14(18-15)11-4-2-1-3-5-11/h1-10H,16H2","HRGHDJABLKTZPP-UHFFFAOYSA-N","?, ?","25","spectrophotometric","b1/apparent","?, ?","basic",3.01
"15027","N3(=C(C1(=NC=2(C=CC=CC=2(N1C))))C=CC=C3)","CN1C(=NC2C=CC=CC1=2)C1C=CC=CN=1","InChI=1S/C13H11N3/c1-16-12-8-3-2-6-10(12)15-13(16)11-7-4-5-9-14-11/h2-9H,1H3","NVWRQUXLFNJECF-UHFFFAOYSA-N","?, ?","25","spectrophotometric","a2/apparent","NH, NH","basic",4.47
"14011","N2(=C(C=1(NN=CC=1))C=CC=C2)","C1=CC=CN=C1C1=CC=NN1","InChI=1S/C8H7N3/c1-2-5-9-7(3-1)8-4-6-10-11-8/h1-6H,(H,10,11)","HKEWOTUTAYJWQJ-UHFFFAOYSA-N","?, ?","25","potentiometric","a1/apparent","?, ?","basic",4.46
"16199","S(=O)(=O)(NC1(=NC=CC=C1))C2(=CC=C(N)C=C2)","NC1C=CC(=CC=1)S(=O)(=O)NC1C=CC=CN=1","InChI=1S/C11H11N3O2S/c12-9-4-6-10(7-5-9)17(15,16)14-11-3-1-2-8-13-11/h1-8H,12H2,(H,13,14)","GECHUMIMRBOMGK-UHFFFAOYSA-N","?, ?","21","potentiometric","a/apparent","?, ?","basic",2.58
"16963","N=1(N(C(C)=CC=1CN2(N=C(C)C=C2C))C)","CN1N=C(CN2N=C(C)C=C2C)C=C1C","InChI=1S/C11H16N4/c1-8-5-10(3)15(12-8)7-11-6-9(2)14(4)13-11/h5-6H,7H2,1-4H3","WQBGKYOMACDZNR-UHFFFAOYSA-N","?, ?","25","potentiometric","a1/apparent","?, ?","basic",3.39
"13072","O=C(O)C1(=[NH+]C=CC=C1)","OC(=O)C1C=CC=CN=1","InChI=1S/C6H5NO2/c8-6(9)5-3-1-2-4-7-5/h1-4H,(H,8,9)","SIOXPEMLGUPBBT-UHFFFAOYSA-N","?, ?","25","spectrophotometric","a3/apparent","CO, NH(1+)","basic",5.32
"17794","N1(=CC(N)=CC=C1)","NC1C=NC=CC=1","InChI=1S/C5H6N2/c6-5-2-1-3-7-4-5/h1-4H,6H2","CUYKNJBYIJFRCU-UHFFFAOYSA-N","?, ?","25","mean from 8","a1/apparent","NH(+), ?","basic",6.08
"15348","N=1(C=3(C(C=C2(C=1C=C(N(C)C)C=C2))=CC=C(C=3)N(C)C))","CN(C)C1=CC2=NC3=CC(=CC=C3C=C2C=C1)N(C)C","InChI=1S/C17H19N3/c1-19(2)14-7-5-12-9-13-6-8-15(20(3)4)11-17(13)18-16(12)10-14/h5-11H,1-4H3","DPKHZNPWBDQZCN-UHFFFAOYSA-N","?, ?, ?","20","mean from 2","a1/apparent","?, ?, ?","basic",10.42
"14580","O=C(NN)C1(=CC=C(N)C=C1)","NC1C=CC(=CC=1)C(=O)NN","InChI=1S/C7H9N3O/c8-6-3-1-5(2-4-6)7(11)10-9/h1-4H,8-9H2,(H,10,11)","WPBZMCGPFHZRHJ-UHFFFAOYSA-N","?, ?","25","potentiometric","a2/apparent","?, ?","basic",3.56
"11039","N2(=C(C1(=CN=CC=C1))C=CC=C2)","C1N=CC=CC=1C1C=CC=CN=1","InChI=1S/C10H8N2/c1-2-7-12-10(5-1)9-4-3-6-11-8-9/h1-8H","VEKIYFGCEAJDDT-UHFFFAOYSA-N","?, ?","20","potentiometric","a2/apparent","?, ?","basic",4.42
"11262","N2(=C(C1(=NC=CN1C))C=CC=C2)","CN1C=CN=C1C1C=CC=CN=1","InChI=1S/C9H9N3/c1-12-7-6-11-9(12)8-4-2-3-5-10-8/h2-7H,1H3","RANAVWQXXHJSQN-UHFFFAOYSA-N","?, ?","25","potentiometric","a1/apparent","?, ?","basic",5.7
"11804","N1(=N[N-]C(=N1)CCN(C)C)","CN(C)CCC1=NNN=N1","InChI=1S/C5H11N5/c1-10(2)4-3-5-6-8-9-7-5/h3-4H2,1-2H3,(H,6,7,8,9)","YNEMZPANWCXQLJ-UHFFFAOYSA-N","?, ?","25","potentiometric","a1/apparent","MeNH(1+)-, tetrazole","basic",9.39
"16000","N=3(C2(=C1(N=CC=CC1=CC=C2C=CC=3)))","C1=CC=NC2=C3N=CC=CC3=CC=C21","InChI=1S/C12H8N2/c1-3-9-5-6-10-4-2-8-14-12(10)11(9)13-7-1/h1-8H","DGEZNRSVGBDHLK-UHFFFAOYSA-N","?, ?","24","mean from 12","a1/apparent","N-H+, ?","basic",4.96
"15165","O=[N+]([O-])C2(=CC=1(N=C(CC(=NC=1C=C2)C)C))","CC1CC(C)=NC2C=CC(=CC=2N=1)[N+]([O-])=O","InChI=1S/C11H11N3O2/c1-7-5-8(2)13-11-6-9(14(15)16)3-4-10(11)12-7/h3-4,6H,5H2,1-2H3","XGWOKQYGEIQKMO-UHFFFAOYSA-N","?, ?","25","conductometric","a2/apparent","?, ?","basic",4.95
"15677","P(=O)(O)(O)COCCN2(C1(=NC=CC(=C1N=C2)N))","NC1C=CN=C2C=1N=CN2CCOCP(O)(O)=O","InChI=1S/C9H13N4O4P/c10-7-1-2-11-9-8(7)12-5-13(9)3-4-17-6-18(14,15)16/h1-2,5H,3-4,6H2,(H2,10,11)(H2,14,15,16)","GWFQKESHLMOELE-UHFFFAOYSA-N","?, ?, ?","25","potentiometric","a3/apparent","(N3)-H, (N3)-H, (N7)-H","basic",5.52
"16924","NC3(=C(C=C(C(C1(=CC=C(N)C=C1))C2(=CC=C(N)C=C2))C=C3)C)","CC1C=C(C=CC=1N)C(C1C=CC(N)=CC=1)C1C=CC(N)=CC=1","InChI=1S/C20H21N3/c1-13-12-16(6-11-19(13)23)20(14-2-7-17(21)8-3-14)15-4-9-18(22)10-5-15/h2-12,20H,21-23H2,1H3","ITCXLPKDGZPCRM-UHFFFAOYSA-N","?, ?, ?","18","potentiometric","a/apparent","1.Stufe, 3.Stufe, 2.Stufe","basic",4.9
"16866","O4(CCN(CC=1(N=C2(C(=CC(=NN2(C=1))C3(=CC=CC=C3))C)))CC4)","CC1=CC(=NN2C=C(CN3CCOCC3)N=C21)C1C=CC=CC=1","InChI=1S/C18H20N4O/c1-14-11-17(15-5-3-2-4-6-15)20-22-13-16(19-18(14)22)12-21-7-9-23-10-8-21/h2-6,11,13H,7-10,12H2,1H3","SVCXURCAELDASS-UHFFFAOYSA-N","?, ?","25","potentiometric","a2/apparent","?, ?","basic",6.3
"16191","OCCN(CC1(=NC=2(C=CC=CC=2(N1))))CCO","OCCN(CC1NC2C=CC=CC=2N=1)CCO","InChI=1S/C12H17N3O2/c16-7-5-15(6-8-17)9-12-13-10-3-1-2-4-11(10)14-12/h1-4,16-17H,5-9H2,(H,13,14)","LMSFAZAHDZAGGV-UHFFFAOYSA-N","?, ?","20","potentiometric","a2/apparent","NH(1+), ar.NH(1+)","basic",5.93
"16389","FC(F)(F)C1(=C(N=NC(=C1)C2(=CC=CC=C2))NCCN3(CCOCC3))","FC(F)(F)C1C=C(N=NC=1NCCN1CCOCC1)C1C=CC=CC=1","InChI=1S/C17H19F3N4O/c18-17(19,20)14-12-15(13-4-2-1-3-5-13)22-23-16(14)21-6-7-24-8-10-25-11-9-24/h1-5,12H,6-11H2,(H,21,23)","GJUSYOADRIWSID-UHFFFAOYSA-N","?, ?","25","potentiometric","a1/apparent","NH(+), ?","basic",6.75
"15488","O=C(N)CN(CC1(=C(O)C=CC=C1))CCN(CC2(=C(O)C=CC=C2))CC(=O)N","N=C(O)CN(CC1=CC=CC=C1O)CCN(CC(=N)O)CC1=CC=CC=C1O","InChI=1S/C20H26N4O4/c21-19(27)13-23(11-15-5-1-3-7-17(15)25)9-10-24(14-20(22)28)12-16-6-2-4-8-18(16)26/h1-8,25-26H,9-14H2,(H2,21,27)(H2,22,28)","NDSQZPPPJAKNLK-UHFFFAOYSA-N","?, ?","25","potentiometric","a3/apparent","?, ?","basic",6.54
"15974","O=C(OCC1(=CC=CC=C1))NC(C(=O)NN)CC=2(N=CNC=2)","NNC(O)C(CC1=CNC=N1)=NC(=O)OCC1C=CC=CC=1","InChI=1S/C14H17N5O3/c15-19-13(20)12(6-11-7-16-9-17-11)18-14(21)22-8-10-4-2-1-3-5-10/h1-5,7,9,13,19-20H,6,8,15H2,(H,16,17)","ZENRJTYPQJTERF-UHFFFAOYSA-N","?, ?",,"potentiometric","a2/apparent","?, ?","basic",6.1
"16865","O4(CCN(CC=3(N2(N=C(C1(=CC=CC=C1))C=C(C2=NC=3)C)))CC4)","CC1=CC(=NN2C1=NC=C2CN1CCOCC1)C1C=CC=CC=1","InChI=1S/C18H20N4O/c1-14-11-17(15-5-3-2-4-6-15)20-22-16(12-19-18(14)22)13-21-7-9-23-10-8-21/h2-6,11-12H,7-10,13H2,1H3","CBJULRTURZHELB-UHFFFAOYSA-N","?, ?","25","potentiometric","a2/apparent","?, ?","basic",6.01
"15322","N1(=C(N=CC2(=C1NC=N2))N=CC3(=CC=C(N(C)C)C=C3))","CN(C)C1C=CC(C=NC2=NC3NC=NC=3C=N2)=CC=1","InChI=1S/C14H14N6/c1-20(2)11-5-3-10(4-6-11)7-15-14-16-8-12-13(19-14)18-9-17-12/h3-9H,1-2H3,(H,16,17,18,19)","OKWHDASBCPUBAD-UHFFFAOYSA-N","?, ?","25","spectrophotometric","a2/apparent","OH, NH","basic",5.26
"15865","ClC1(=C(N=NC(=C1)C2(=CC=CC=C2))NCCN3(CCOCC3))","ClC1C=C(N=NC=1NCCN1CCOCC1)C1C=CC=CC=1","InChI=1S/C16H19ClN4O/c17-14-12-15(13-4-2-1-3-5-13)19-20-16(14)18-6-7-21-8-10-22-11-9-21/h1-5,12H,6-11H2,(H,18,20)","IZOJCPQKEQTJDF-UHFFFAOYSA-N","?, ?","25","potentiometric","a1/apparent","NH(+), ?","basic",6.64
"14024","N=2(C1(=C(C=CC(=C1)N)N(C=2)C))","CN1C=NC2C=C(N)C=CC1=2","InChI=1S/C8H9N3/c1-11-5-10-7-4-6(9)2-3-8(7)11/h2-5H,9H2,1H3","IWBGBYZGEQUDBT-UHFFFAOYSA-N","?, ?","24","mean from 2","a2/apparent","?, ?","basic",6.29
"16241","OC1(=C(C(=CN=C1C)C)C=NCCCCCC)","CCCCCCN=CC1=C(O)C(C)=NC=C1C","InChI=1S/C14H22N2O/c1-4-5-6-7-8-15-10-13-11(2)9-16-12(3)14(13)17/h9-10,17H,4-8H2,1-3H3","NEVAWUIZGNPLSZ-UHFFFAOYSA-N","?, ?","25","spectrophotometric","b1/apparent","=NH, =NH","basic",6.22
"10107","N1(=C(C=CC=C1)CN)","NCC1C=CC=CN=1","InChI=1S/C6H8N2/c7-5-6-3-1-2-4-8-6/h1-4H,5,7H2","WOXFMYVTSLAQMO-UHFFFAOYSA-N","?, ?, ?","25","potentiometric","a2/apparent","?, ?, ?","basic",8.47
"10983","N=1(N=CC2(=CC=CC=C2(C=1NN)))","NNC1=NN=CC2=CC=CC=C21","InChI=1S/C8H8N4/c9-11-8-7-4-2-1-3-6(7)5-10-12-8/h1-5H,9H2,(H,11,12)","RPTUSVTUFVMDQK-UHFFFAOYSA-N","?, ?","22","potentiometric","a2/apparent","?, ?","basic",7.25
"15299","N3(C(C1(=CC=CC=C1))C2(=CC=CC=C2))(CCN(C)CC3)","CN1CCN(CC1)C(C1C=CC=CC=1)C1C=CC=CC=1","InChI=1S/C18H22N2/c1-19-12-14-20(15-13-19)18(16-8-4-2-5-9-16)17-10-6-3-7-11-17/h2-11,18H,12-15H2,1H3","UVKZSORBKUEBAZ-UHFFFAOYSA-N","?, ?","24.5","potentiometric","a2/apparent","?, ?","basic",8.05
"11264","N=2(C1(=C(C=CC(=C1)N)N(C=2C)C))","CC1=NC2C=C(N)C=CC=2N1C","InChI=1S/C9H11N3/c1-6-11-8-5-7(10)3-4-9(8)12(6)2/h3-5H,10H2,1-2H3","KHIGSIBNOPKCOT-UHFFFAOYSA-N","?, ?",,"potentiometric","a2/apparent","?, ?","basic",7.0
"11232","N1(=C(NC=C1)C(N)C2(=NC=CN2))","NC(C1NC=CN=1)C1NC=CN=1","InChI=1S/C7H9N5/c8-5(6-9-1-2-10-6)7-11-3-4-12-7/h1-5H,8H2,(H,9,10)(H,11,12)","JBWNTRKSBCIBEO-UHFFFAOYSA-N","?, ?","24.9","potentiometric","a3/apparent","NH, NH","basic",6.49
"11055","N1(=CC(=CC=C1)C2(N(CCC2)C))","CN1CCCC1C1C=NC=CC=1","InChI=1S/C10H14N2/c1-12-7-3-5-10(12)9-4-2-6-11-8-9/h2,4,6,8,10H,3,5,7H2,1H3","SNICXCGAKADSCV-UHFFFAOYSA-N","?, ?, ?, ?","25","mean from 2","a2/apparent","?, ?, ?, ?","basic",8.06
"16930","O(C2(=C1(NC5(CCC4(C3(C5(C1=CC=C2)(CCN3CCC4)))(CC)))))C","CCC12CCC3NC4C(=CC=CC=4OC)C43CCN(CCC1)C42","InChI=1S/C20H28N2O/c1-3-19-9-5-12-22-13-11-20(18(19)22)14-6-4-7-15(23-2)17(14)21-16(20)8-10-19/h4,6-7,16,18,21H,3,5,8-13H2,1-2H3","NGBPTTMEDUDCAG-UHFFFAOYSA-N","?, ?","25","potentiometric","a2/thermodynamic","?, ?","basic",8.46
"16606","P(=O)([O-])C([NH2+]CC1(=CN=CC=C1))C2(=C(O)C=CC=C2)","OC1=CC=CC=C1C(NCC1C=NC=CC=1)P(O)=O","InChI=1S/C13H15N2O3P/c16-12-6-2-1-5-11(12)13(19(17)18)15-9-10-4-3-7-14-8-10/h1-8,13,15-16,19H,9H2,(H,17,18)","FRMZDTSHZLLCPC-UHFFFAOYSA-N","?, ?","20","mean from 2","b2/apparent","?, ?","basic",8.05
"16356","O(C4(=CC=1(C(=NC=CC=1C(O)C2(N3(CC(O)(C=C)C(C2)CC3)))C=C4)))C","COC1=CC2=C(C=CN=C2C=C1)C(O)C1CC2CCN1CC2(O)C=C","InChI=1S/C20H24N2O3/c1-3-20(24)12-22-9-7-13(20)10-18(22)19(23)15-6-8-21-17-5-4-14(25-2)11-16(15)17/h3-6,8,11,13,18-19,23-24H,1,7,9-10,12H2,2H3","BSRUJCFCZKMFMB-UHFFFAOYSA-N","?, ?",,,"a2/apparent","?, ?","basic",7.24
"16317","N1(=C(NC=C1CC=2(N=CNC=2))CC3(=NC=CN3))","C(C1NC=CN=1)C1NC=C(CC2=CNC=N2)N=1","InChI=1S/C11H12N6/c1-2-14-10(13-1)4-11-15-6-9(17-11)3-8-5-12-7-16-8/h1-2,5-7H,3-4H2,(H,12,16)(H,13,14)(H,15,17)","STVWNEVGTHFIJG-UHFFFAOYSA-N","?, ?, ?","24.85","potentiometric","a3/apparent","NH, NH, NH","basic",7.26
"10330","N12(CCN(CC1)CC2)","C1CN2CCN1CC2","InChI=1S/C6H12N2/c1-2-8-5-3-7(1)4-6-8/h1-6H2","IMNIMPAHZVJRPE-UHFFFAOYSA-N","?, ?","21","mean from 4","b1/apparent","?, NH%+&","basic",8.75
"17088","O=C(C1(=CC=CC=C1))CC2(=CC=NC=C2)","OC(=CC1C=CN=CC=1)C1C=CC=CC=1","InChI=1S/C13H11NO/c15-13(12-4-2-1-3-5-12)10-11-6-8-14-9-7-11/h1-10,15H","DUGBGIXHQNWLNJ-UHFFFAOYSA-N","?, ?, ?","25","spectrophotometric","b1/apparent","?, ?, ?","basic",7.05
"11114","N2(=C(C=1(NC=NC=1N=C2))C=NN)","N=NCC1=NC=NC2N=CNC=21","InChI=1S/C6H6N6/c7-12-1-4-5-6(10-2-8-4)11-3-9-5/h2-3,7H,1H2,(H,8,9,10,11)","XXKJCKCVYTYEMU-UHFFFAOYSA-N","?, ?",,"spectrophotometric","a2/apparent","?, ?","basic",9.2
"13755","N1(=C(NC=C1)CC2(=NC=CN2))","C(C1NC=CN=1)C1NC=CN=1","InChI=1S/C7H8N4/c1-2-9-6(8-1)5-7-10-3-4-11-7/h1-4H,5H2,(H,8,9)(H,10,11)","DKWVMFVZPTZPJE-UHFFFAOYSA-N","?, ?","24","mean from 2","a2/apparent","NH, NH","basic",7.27
"15872","OC1(=C(C=CC=C1)C=NC3(=CC=C(C2(=CC=C(N)C=C2))C=C3))","NC1C=CC(=CC=1)C1C=CC(=CC=1)N=CC1C=CC=CC=1O","InChI=1S/C19H16N2O/c20-17-9-5-14(6-10-17)15-7-11-18(12-8-15)21-13-16-3-1-2-4-19(16)22/h1-13,22H,20H2","FIZTYKFBNMXWAF-UHFFFAOYSA-N","?, ?","25","spectrophotometric","a2/apparent","?, ?","basic",7.68
"15944","N(=C(C1(=C(C=CC=C1C)C))C2(=CC=CC=C2))CCCN(C)C","CC1C=CC=C(C)C=1C(=NCCCN(C)C)C1C=CC=CC=1","InChI=1S/C20H26N2/c1-16-10-8-11-17(2)19(16)20(18-12-6-5-7-13-18)21-14-9-15-22(3)4/h5-8,10-13H,9,14-15H2,1-4H3","RBZZGNUOXWZPBL-UHFFFAOYSA-N","?, ?","25","potentiometric","a2/apparent","?, ?","basic",8.7
"15957","OC(C1(=CC=C(N)C=C1))CNC(CC2(=C(C(C)(C)CC2)C))C","CC1=C(CC(C)NCC(O)C2C=CC(N)=CC=2)CCC1(C)C","InChI=1S/C19H30N2O/c1-13(11-16-9-10-19(3,4)14(16)2)21-12-18(22)15-5-7-17(20)8-6-15/h5-8,13,18,21-22H,9-12,20H2,1-4H3","UUAMVYHOKIMXSY-UHFFFAOYSA-N","?, ?",,"potentiometric","a1/apparent","NH2(+), NH3(+)","basic",9.01
"15652","N4(=CC=1(C(=C(C=2(NC3(=C(C=2(C=1))C=NC=C3)))C)C=C4))","CC1C2NC3C=CN=CC=3C=2C=C2C=NC=CC2=1","InChI=1S/C15H11N3/c1-9-11-2-4-16-7-10(11)6-12-13-8-17-5-3-14(13)18-15(9)12/h2-8,18H,1H3","BPWZLDGBHXYZGS-UHFFFAOYSA-N","?, ?","25","spectrophotometric","a2/apparent","?, ?","basic",7.5
"14791","O=C(O)C=1(C=NN(C=1)CCCC[NH+]4(CCN(CC2(=NC=3(C=CC=CC=3(N2CCOCC))))CC4))","CCOCCN1C2C=CC=CC=2N=C1CN1CCN(CCCCN2C=C(C=N2)C(O)=O)CC1","InChI=1S/C24H34N6O3/c1-2-33-16-15-30-22-8-4-3-7-21(22)26-23(30)19-28-13-11-27(12-14-28)9-5-6-10-29-18-20(17-25-29)24(31)32/h3-4,7-8,17-18H,2,5-6,9-16,19H2,1H3,(H,31,32)","CLDBSQIUONWKPM-UHFFFAOYSA-N","?, ?","25","potentiometric","a2/apparent","?, ?","basic",8.0
"10167","[O-]C1(=[NH+]C=CC(=N1)C)","CC1C=CN=C(O)N=1","InChI=1S/C5H6N2O/c1-4-2-3-6-5(8)7-4/h2-3H,1H3,(H,6,7,8)","AHHHDTLXONDKQF-UHFFFAOYSA-N","?, ?",,"potentiometric","a1/apparent","?, ?","basic",9.8
"11526","ClC1(=CC(N)=CC(=C1)CN)","NC1C=C(Cl)C=C(CN)C=1","InChI=1S/C7H9ClN2/c8-6-1-5(4-9)2-7(10)3-6/h1-3H,4,9-10H2","WIVZFVALCYRYIQ-UHFFFAOYSA-N","?, ?","25","potentiometric","a2/apparent","?, ?","basic",9.54
"10506","ON=C(N)CCNC","CNCCC(N)N=O","InChI=1S/C4H11N3O/c1-6-3-2-4(5)7-8/h4,6H,2-3,5H2,1H3","ZQWUSJPKUKWLOP-UHFFFAOYSA-N","?, ?","20","potentiometric","a2/apparent","?, ?","basic",9.6
"13756","N1(=CNC(=C1)CC=2(NC=NC=2))","C(C1=CN=CN1)C1=CN=CN1","InChI=1S/C7H8N4/c1(6-2-8-4-10-6)7-3-9-5-11-7/h2-5H,1H2,(H,8,10)(H,9,11)","OPYSJMNXDRFQHK-UHFFFAOYSA-N","?, ?","25","potentiometric","a1/apparent","?, ?","basic",7.63
"14293","O=C(N)C(N)CC=1(N=CNC=1)","NC(O)C(=N)CC1=CNC=N1","InChI=1S/C6H10N4O/c7-5(6(8)11)1-4-2-9-3-10-4/h2-3,6-7,11H,1,8H2,(H,9,10)","PFARGMSYQZHEMG-UHFFFAOYSA-N","?, ?",,"potentiometric","a2/apparent","?, ?","basic",7.64
"13994","[O-]C1(=NC([O-])=C2(NN=NC2(=N1)))","OC1N=C(O)N=C2N=NNC=12","InChI=1S/C4H3N5O2/c10-3-1-2(8-9-7-1)5-4(11)6-3/h(H3,5,6,7,8,9,10,11)","KVGVQTOQSNJTJI-UHFFFAOYSA-N","?, ?",,"potentiometric","a2/apparent","?, ?","basic",9.3
"15955","O(C2(=C(C(=NCCCN(C)C)C1(=CC=CC=C1))C=CC=C2))C","COC1C=CC=CC=1C(=NCCCN(C)C)C1C=CC=CC=1","InChI=1S/C19H24N2O/c1-21(2)15-9-14-20-19(16-10-5-4-6-11-16)17-12-7-8-13-18(17)22-3/h4-8,10-13H,9,14-15H2,1-3H3","FGGCBOYAXPEVCL-UHFFFAOYSA-N","?, ?","25","potentiometric","a2/apparent","?, ?","basic",9.0
"10693","OC1(=C(C(=CN=C1C)CO)C[NH3+])","CC1N=CC(CO)=C(CN)C=1O","InChI=1S/C8H12N2O2/c1-5-8(12)7(2-9)6(4-11)3-10-5/h3,11-12H,2,4,9H2,1H3","NHZMQXZHNVQTQA-UHFFFAOYSA-N","?, ?","24","mean from 4","a3/apparent","?, ?","basic",10.32
"12148","OC(C1(=CC(N)=CC=C1))CNC(C)C","CC(C)NCC(O)C1C=CC=C(N)C=1","InChI=1S/C11H18N2O/c1-8(2)13-7-11(14)9-4-3-5-10(12)6-9/h3-6,8,11,13-14H,7,12H2,1-2H3","JFDARPRNBWSOHO-UHFFFAOYSA-N","?, ?","20","potentiometric","a/apparent","&2%, &1%","basic",9.6
"14368","O(C1(=C(N)C=C(CN)C=C1))C","COC1C=CC(CN)=CC=1N","InChI=1S/C8H12N2O/c1-11-8-3-2-6(5-9)4-7(8)10/h2-4H,5,9-10H2,1H3","PPJILWNZWLDSCP-UHFFFAOYSA-N","?, ?","25","potentiometric","a2/apparent","?, ?","basic",9.77
"11505","NC1(=CC(=C(C)C=C1)CN)","CC1C=CC(N)=CC=1CN","InChI=1S/C8H12N2/c1-6-2-3-8(10)4-7(6)5-9/h2-4H,5,9-10H2,1H3","KQRBVQBUODOYPI-UHFFFAOYSA-N","?, ?","25","potentiometric","a2/apparent","?, ?","basic",9.33
"14831","O(CCN2(C1(=C(C=CC=C1)N=C2CN4(CCN(CCCCN3(N=CC=C3))CCC4))))CC","CCOCCN1C2C=CC=CC=2N=C1CN1CCCN(CCCCN2C=CC=N2)CC1","InChI=1S/C24H36N6O/c1-2-31-20-19-30-23-10-4-3-9-22(23)26-24(30)21-28-14-8-13-27(17-18-28)12-5-6-15-29-16-7-11-25-29/h3-4,7,9-11,16H,2,5-6,8,12-15,17-21H2,1H3","RHXWRGKDHVRNPZ-UHFFFAOYSA-N","?, ?","25","potentiometric","a2/apparent","?, ?","basic",9.2
"17479","NC(CN)CN","NC(CN)CN","InChI=1S/C3H11N3/c4-1-3(6)2-5/h3H,1-2,4-6H2","PZZICILSCNDOKK-UHFFFAOYSA-N","?, ?, ?","20","mean from 2","a3/apparent","?, ?, ?","basic",9.59
"14299","NC1(=C(C=C(C)C(=C1)CN)C)","CC1=CC(C)=C(N)C=C1CN","InChI=1S/C9H14N2/c1-6-3-7(2)9(11)4-8(6)5-10/h3-4H,5,10-11H2,1-2H3","SPFHKJDEDYQBAF-UHFFFAOYSA-N","?, ?","25","potentiometric","a2/apparent","?, ?","basic",9.77
"16073","N=2(C(C1(=CC=C(N=CNC(C)C)C=C1))=CNC=2)","CC(C)N/C=N/C1C=CC(=CC=1)C1=CNC=N1","InChI=1S/C13H16N4/c1-10(2)15-9-16-12-5-3-11(4-6-12)13-7-14-8-17-13/h3-10H,1-2H3,(H,14,17)(H,15,16)","GOZUADYOHPCXLE-UHFFFAOYSA-N","?, ?","25","mean from 2","a1/apparent","NH(1+), NH(1+)","basic",8.88
"10076","N(C1(C(NC)C1)(C))C","CC1(CC1NC)NC","InChI=1S/C6H14N2/c1-6(8-3)4-5(6)7-2/h5,7-8H,4H2,1-3H3","CHGOHVBUSXYCKW-UHFFFAOYSA-N","?, ?","25",,"a2/thermodynamic","NH, NH","basic",9.05
"11814","N1(CCC(NNC)CC1)(C)","CNNC1CCN(C)CC1","InChI=1S/C7H17N3/c1-8-9-7-3-5-10(2)6-4-7/h7-9H,3-6H2,1-2H3","VIDTUIAYWHYNFF-UHFFFAOYSA-N","?, ?","20","potentiometric","a2/apparent","?, ?","basic",8.7
"17287","NC1(C(N)C1)(C)","CC1(N)CC1N","InChI=1S/C4H10N2/c1-4(6)2-3(4)5/h3H,2,5-6H2,1H3","OFGPADUXZCUDRS-UHFFFAOYSA-N","?, ?","25",,"a2/thermodynamic","NH, NH","basic",9.06
"17793","NC1(C(N)(C)C1)(C)","CC1(N)CC1(C)N","InChI=1S/C5H12N2/c1-4(6)3-5(4,2)7/h3,6-7H2,1-2H3","VWBFNFGYOFVPSG-UHFFFAOYSA-N","?, ?","25",,"a2/thermodynamic","NH, NH","basic",9.03
"13537","O=C(NCCC=1(N=CNC=1))CNC","CN=CC(O)NCCC1=CNC=N1","InChI=1S/C8H14N4O/c1-9-5-8(13)11-3-2-7-4-10-6-12-7/h4-6,8,11,13H,2-3H2,1H3,(H,10,12)","QTAQSXPEONTVCS-UHFFFAOYSA-N","?, ?","24.9","potentiometric","a2/apparent","?, ?","basic",8.31
"10385","N(CCN(C)C)(C)C","CN(C)CCN(C)C","InChI=1S/C6H16N2/c1-7(2)5-6-8(3)4/h5-6H2,1-4H3","KWYHDKDOAIKMQN-UHFFFAOYSA-N","?, ?","25","mean from 5","a1/apparent","N-H, NH(1+)","basic",9.15
"11527","S1(CCNCCCNCC1)","C1CCNCCSCCN1","InChI=1S/C7H16N2S/c1-2-8-4-6-10-7-5-9-3-1/h8-9H,1-7H2","ZIPMZUOMEYBSPA-UHFFFAOYSA-N","?, ?","25","potentiometric","b1/apparent","NH, NH","basic",12.02
"10904","N1(C(C)C)(CCC(NNC)CC1)","CC(C)N1CCC(CC1)NNC","InChI=1S/C9H21N3/c1-8(2)12-6-4-9(5-7-12)11-10-3/h8-11H,4-7H2,1-3H3","VPEWGUGWXFHTEA-UHFFFAOYSA-N","?, ?","20","potentiometric","a2/apparent","?, ?","basic",9.1
"14560","N1(C(C)C)(CCC(NN)CC1)","CC(C)N1CCC(CC1)NN","InChI=1S/C8H19N3/c1-7(2)11-5-3-8(10-9)4-6-11/h7-8,10H,3-6,9H2,1-2H3","LWCQGKZOFRYVCC-UHFFFAOYSA-N","?, ?","20","potentiometric","a2/apparent","?, ?","basic",9.65
"11508","N1(=CC=C(CCCN)C=C1)","NCCCC1C=CN=CC=1","InChI=1S/C8H12N2/c9-5-1-2-8-3-6-10-7-4-8/h3-4,6-7H,1-2,5,9H2","JURFPUSNTWSSPJ-UHFFFAOYSA-N","?, ?","25","potentiometric","a1/apparent","?, ?","basic",9.98
"11932","N(CCNC)(CCNC)C","CN(CCNC)CCNC","InChI=1S/C7H19N3/c1-8-4-6-10(3)7-5-9-2/h8-9H,4-7H2,1-3H3","ODZZIKZQNODXFS-UHFFFAOYSA-N","?, ?, ?","25","potentiometric","b3/thermodynamic","ammonium, ammonium, ammonium","basic",10.36
"13547","N(C1(C(N(C)C)CCC1))(CC)CC","CN(C)C1CCCC1N(CC)CC","InChI=1S/C11H24N2/c1-5-13(6-2)11-9-7-8-10(11)12(3)4/h10-11H,5-9H2,1-4H3","HPFOECHEQLKMMV-UHFFFAOYSA-N","?, ?","25","mean from 2","a2/apparent","NH, NH","basic",9.91