"Molecule name","OriginalSmiles","Canonical_QSARr","InChI_Code_QSARr","InChI Key_QSARr","Salt_Solvent (Concatenate)","temp","method","type","group","basicOrAcidic","pKa"
"12368","O=C(N1(C(=NC=C1)CC2(=NC=CN2)))C","C=C(O)N1C=CN=C1CC1NC=CN=1","InChI=1S/C9H10N4O/c1-7(14)13-5-4-12-9(13)6-8-10-2-3-11-8/h2-5,14H,1,6H2,(H,10,11)","QZYLKVLSHQOHON-UHFFFAOYSA-N","?, ?","25",,"a1/apparent","?, ?","basic",6.6
"11290","N1(=C(N=C2(N=C(NC2(=C1N))N))N)","NC1N=C(N)N=C2N=C(N)NC=12","InChI=1S/C5H7N7/c6-2-1-3(11-4(7)9-1)12-5(8)10-2/h(H7,6,7,8,9,10,11,12)","FNUSUXSXQXLDBC-UHFFFAOYSA-N","?, ?","20","potentiometric","a2/apparent","?, ?","basic",6.23
"12948","OC1(=C(N)C=C(N)C=C1)","NC1=CC(N)=C(O)C=C1","InChI=1S/C6H8N2O/c7-4-1-2-6(9)5(8)3-4/h1-3,9H,7-8H2","XIWMTQIUUWJNRP-UHFFFAOYSA-N","?, ?","20","spectrophotometric","a2/apparent","?, ?","basic",5.7
"10633","N(C1(=CC=C(N(C)C)C=C1))(C)C","CN(C)C1C=CC(=CC=1)N(C)C","InChI=1S/C10H16N2/c1-11(2)9-5-7-10(8-6-9)12(3)4/h5-8H,1-4H3","CJAOGUFAAWZWNI-UHFFFAOYSA-N","?, ?","20","mean from 2","a1/apparent","N-H, ?","basic",6.37
"11263","N=2(C1(=C(C(N)=CC=C1)N(C=2C)C))","CC1=NC2C=CC=C(N)C=2N1C","InChI=1S/C9H11N3/c1-6-11-8-5-3-4-7(10)9(8)12(6)2/h3-5H,10H2,1-2H3","MDOKBVXKWWFHKS-UHFFFAOYSA-N","?, ?",,"potentiometric","a2/apparent","?, ?","basic",6.66
"11821","O=C(NN)C1(=CC=NC=C1)","NNC(=O)C1C=CN=CC=1","InChI=1S/C6H7N3O/c7-9-6(10)5-1-3-8-4-2-5/h1-4H,7H2,(H,9,10)","QRXWMOHMRWLFEY-UHFFFAOYSA-N","?, ?, ?, ?","22","mean from 3","a3/apparent","?, ?, ?, ?","basic",11.04
"10104","NC1(=CC=C(N)C=C1)","NC1C=CC(N)=CC=1","InChI=1S/C6H8N2/c7-5-1-2-6(8)4-3-5/h1-4H,7-8H2","CBCKQZAAMUWICA-UHFFFAOYSA-N","?, ?","20","mean from 14","a1/apparent","NH2, ?","basic",6.16
"11849","ON=C(N)CCC(=NO)N","NC(CCC(N)N=O)N=O","InChI=1S/C4H10N4O2/c5-3(7-9)1-2-4(6)8-10/h3-4H,1-2,5-6H2","JHJCKRRZUDBMCU-UHFFFAOYSA-N","?, ?","25","potentiometric","a2/apparent","?, ?","basic",5.97
"10140","[S-]C1(=[NH+]C=NC(=C1)C)","CC1=CC(S)=NC=N1","InChI=1S/C5H6N2S/c1-4-2-5(8)7-3-6-4/h2-3H,1H3,(H,6,7,8)","HCADPDLQEAZJJN-UHFFFAOYSA-N","?, ?",,"potentiometric","a1/apparent","?, ?","basic",7.3
"15917","O4(CCN(CC=3(N2(N=C(C1(=CC=CC=C1))C=CC2=NC=3)))CC4)","C(C1=CN=C2C=CC(=NN12)C1C=CC=CC=1)N1CCOCC1","InChI=1S/C17H18N4O/c1-2-4-14(5-3-1)16-6-7-17-18-12-15(21(17)19-16)13-20-8-10-22-11-9-20/h1-7,12H,8-11,13H2","OTUHCOQARZUOQC-UHFFFAOYSA-N","?, ?","25","potentiometric","a2/apparent","?, ?","basic",6.21
"12088","N=2(C1(=C(C=CC(=C1)N)NC=2))","NC1=CC2N=CNC=2C=C1","InChI=1S/C7H7N3/c8-5-1-2-6-7(3-5)10-4-9-6/h1-4H,8H2,(H,9,10)","WFRXSXUDWCVSPI-UHFFFAOYSA-N","?, ?","25","potentiometric","a2/apparent","?, ?","basic",6.11
"16072","N2(=CC=C(N=NC1(=CC=C(N(C)C)C=C1))C=C2)","CN(C)C1C=CC(=CC=1)N=NC1C=CN=CC=1","InChI=1S/C13H14N4/c1-17(2)13-5-3-11(4-6-13)15-16-12-7-9-14-10-8-12/h3-10H,1-2H3","FUVJXDPEJMGTFG-UHFFFAOYSA-N","?, ?","25","spectrophotometric","a2/apparent","?, ?","basic",5.8
"13288","O=C1(N(C(=O)C=2(NC=NC=2(N1C)))C)","CN1C(=O)C2NC=NC=2N(C)C1=O","InChI=1S/C7H8N4O2/c1-10-5-4(8-3-9-5)6(12)11(2)7(10)13/h3H,1-2H3,(H,8,9)","ZFXYFBGIUFBOJW-UHFFFAOYSA-N","?, ?","24","mean from 5","a/apparent","?, ?","basic",8.64
"10930","ON=C(N)C(N)C1(=CC=CC=C1)","NC(C(N)N=O)C1C=CC=CC=1","InChI=1S/C8H11N3O/c9-7(8(10)11-12)6-4-2-1-3-5-6/h1-5,7-8H,9-10H2","BVBAUQQCDCIHRL-UHFFFAOYSA-N","?, ?","20","potentiometric","a2/apparent","?, ?","basic",7.15
"10151","OC1(=C([O-])[NH+]=CN=C1)","OC1=CN=CN=C1O","InChI=1S/C4H4N2O2/c7-3-1-5-2-6-4(3)8/h1-2,7H,(H,5,6,8)","URCOLWAKIPNTEM-UHFFFAOYSA-N","?, ?","20","potentiometric","a1/thermodynamic","?, ?","basic",7.48
"16886","O=CC1(=C(N=NC(=C1)C2(=CC=CC=C2))NCCN3(CCOCC3))","O=CC1C=C(N=NC=1NCCN1CCOCC1)C1C=CC=CC=1","InChI=1S/C17H20N4O2/c22-13-15-12-16(14-4-2-1-3-5-14)19-20-17(15)18-6-7-21-8-10-23-11-9-21/h1-5,12-13H,6-11H2,(H,18,20)","MJEQGUMVVYEOCT-UHFFFAOYSA-N","?, ?","25","potentiometric","a1/apparent","NH(+), ?","basic",6.89
"16098","N2(=CC=C(C=CC1(=CC=C(N(C)C)C=C1))C=C2)","CN(C)C1C=CC(C=CC2C=CN=CC=2)=CC=1","InChI=1S/C15H16N2/c1-17(2)15-7-5-13(6-8-15)3-4-14-9-11-16-12-10-14/h3-12H,1-2H3","LIXUVTQYCRSIET-UHFFFAOYSA-N","?, ?","24.85","spectrophotometric","b1/apparent","N-H, N-H","basic",6.25
"16339","N=2(C1(=C(C=CC(=C1)N)NC=2CC3(=CC=CC=C3)))","NC1=CC2N=C(CC3C=CC=CC=3)NC=2C=C1","InChI=1S/C14H13N3/c15-11-6-7-12-13(9-11)17-14(16-12)8-10-4-2-1-3-5-10/h1-7,9H,8,15H2,(H,16,17)","MQTBODNTRQAUSK-UHFFFAOYSA-N","?, ?",,"potentiometric","b1/apparent","?, ?","basic",6.4
"13157","NC1(=C(N)C=CC(=C1)N)","NC1=CC(N)=C(N)C=C1","InChI=1S/C6H9N3/c7-4-1-2-5(8)6(9)3-4/h1-3H,7-9H2","JSYBAZQQYCNZJE-UHFFFAOYSA-N","?, ?",,"potentiometric","b1/apparent","?, ?","basic",6.1
"17483","O=C(NN)CN","NNC(O)C=N","InChI=1S/C2H7N3O/c3-1-2(6)5-4/h1-3,5-6H,4H2","YKURDTSNQZOCSF-UHFFFAOYSA-N","?, ?","25","potentiometric","apparent","NH3+, NHNH3+","basic",7.69
"14027","N=2(C1(=C(C=CC(=C1)N)NC=2C))","CC1NC2C=CC(N)=CC=2N=1","InChI=1S/C8H9N3/c1-5-10-7-3-2-6(9)4-8(7)11-5/h2-4H,9H2,1H3,(H,10,11)","UJYKXBDYOPPOCY-UHFFFAOYSA-N","?, ?","25","mean from 2","a2/apparent","?, ?","basic",6.95
"11511","N(C1(=CC=C(N)C=C1))(C)C","CN(C)C1C=CC(N)=CC=1","InChI=1S/C8H12N2/c1-10(2)8-5-3-7(9)4-6-8/h3-6H,9H2,1-2H3","BZORFPDSXLZWJF-UHFFFAOYSA-N","?, ?","25","mean from 2","b1/apparent","?, ?","basic",6.37
"13580","OCCN(C1(=CC=C(N)C=C1))CC","CCN(CCO)C1C=CC(N)=CC=1","InChI=1S/C10H16N2O/c1-2-12(7-8-13)10-5-3-9(11)4-6-10/h3-6,13H,2,7-8,11H2,1H3","WFXLRLQSHRNHCE-UHFFFAOYSA-N","?, ?","24.9","potentiometric","a2/apparent","NH(+), NH(+)","basic",7.12
"16791","O4(CCN(CCNC2(=NN=C(C1(=CC=CC=C1))C=C2C3(=CC=CC=C3)))CC4)","C(CN1CCOCC1)NC1=NN=C(C=C1C1C=CC=CC=1)C1C=CC=CC=1","InChI=1S/C22H24N4O/c1-3-7-18(8-4-1)20-17-21(19-9-5-2-6-10-19)24-25-22(20)23-11-12-26-13-15-27-16-14-26/h1-10,17H,11-16H2,(H,23,25)","VFDGPNZXYGOKDB-UHFFFAOYSA-N","?, ?","25","mean from 2","a1/apparent","NH(+), ?","basic",6.81
"10141","[S-]C1(=[NH+]C(=CC=N1)C)","CC1=CC=NC(S)=N1","InChI=1S/C5H6N2S/c1-4-2-3-6-5(8)7-4/h2-3H,1H3,(H,6,7,8)","BVPHXTUEZOQIBS-UHFFFAOYSA-N","?, ?",,"potentiometric","a1/apparent","?, ?","basic",8.0
"16534","ClC3(=CC=C(C(N1(CCN(C)CC1))C2(=CC=CC=C2))C=C3)","CN1CCN(CC1)C(C1C=CC=CC=1)C1C=CC(Cl)=CC=1","InChI=1S/C18H21ClN2/c1-20-11-13-21(14-12-20)18(15-5-3-2-4-6-15)16-7-9-17(19)10-8-16/h2-10,18H,11-14H2,1H3","WFNAKBGANONZEQ-UHFFFAOYSA-N","?, ?","25","potentiometric","a2/apparent","?, ?","basic",7.81
"12410","O2(CCN(CCN1(CCOCC1))CC2)","C(CN1CCOCC1)N1CCOCC1","InChI=1S/C10H20N2O2/c1(11-3-7-13-8-4-11)2-12-5-9-14-10-6-12/h1-10H2","QRQKCMFVJWNKQI-UHFFFAOYSA-N","?, ?","25","potentiometric","a2/thermodynamic","?, ?","basic",6.65
"17834","[O-]C1(=[NH+]C=NC=C1)","OC1C=CN=CN=1","InChI=1S/C4H4N2O/c7-4-1-2-5-3-6-4/h1-3H,(H,5,6,7)","DNCYBUMDUBHIJZ-UHFFFAOYSA-N","?, ?","20","mean from 2","a1/apparent","?, ?","basic",8.59
"15215","O=C([O-])C1(=C(N=NC(=C1)C2(=CC=CC=C2))NCC[NH+]3(CCOCC3))","OC(=O)C1=CC(=NN=C1NCCN1CCOCC1)C1C=CC=CC=1","InChI=1S/C17H20N4O3/c22-17(23)14-12-15(13-4-2-1-3-5-13)19-20-16(14)18-6-7-21-8-10-24-11-9-21/h1-5,12H,6-11H2,(H,18,20)(H,22,23)","JAEOCKSFMAVRDL-UHFFFAOYSA-N","?, ?","25","potentiometric","a2/apparent","COOH, NH(+)","basic",7.07
"16531","O3(CCN(CCNC2(=NN=C(C1(=CC=CC=C1))C=C2))CC3)","C(CN1CCOCC1)NC1C=CC(=NN=1)C1C=CC=CC=1","InChI=1S/C16H20N4O/c1-2-4-14(5-3-1)15-6-7-16(19-18-15)17-8-9-20-10-12-21-13-11-20/h1-7H,8-13H2,(H,17,19)","GWGMHVNYPVDVIJ-UHFFFAOYSA-N","?, ?","25","potentiometric","a1/apparent","NH(+), ?","basic",6.74
"15493","O4(CCN(CCNC2(=NN=C(C1(=CC=CC=C1))C=C2CC3(=CC=CC=C3)))CC4)","C(C1=CC(=NN=C1NCCN1CCOCC1)C1C=CC=CC=1)C1C=CC=CC=1","InChI=1S/C23H26N4O/c1-3-7-19(8-4-1)17-21-18-22(20-9-5-2-6-10-20)25-26-23(21)24-11-12-27-13-15-28-16-14-27/h1-10,18H,11-17H2,(H,24,26)","KPSXDGNFHFHNQT-UHFFFAOYSA-N","?, ?","25","spectrophotometric","a1/apparent","NH(+), ?","basic",6.95
"16885","O3(CCN(CCNC2(=NN=C(C1(=CC=CC=C1))C=C2CO))CC3)","OCC1=CC(=NN=C1NCCN1CCOCC1)C1C=CC=CC=1","InChI=1S/C17H22N4O2/c22-13-15-12-16(14-4-2-1-3-5-14)19-20-17(15)18-6-7-21-8-10-23-11-9-21/h1-5,12,22H,6-11,13H2,(H,18,20)","SWPMHDQTQVIBCI-UHFFFAOYSA-N","?, ?","25","potentiometric","a1/apparent","NH(+), ?","basic",6.99
"16659","O=C([O-])CN(CC1(=NC=2(C=CC=CC=2(N1))))CC(=O)[O-]","OC(O)=CN(CC1NC2C=CC=CC=2N=1)C=C(O)O","InChI=1S/C12H13N3O4/c16-11(17)6-15(7-12(18)19)5-10-13-8-3-1-2-4-9(8)14-10/h1-4,6-7,16-19H,5H2,(H,13,14)","SJNFHRDPQCOARL-UHFFFAOYSA-N","?, ?","20","potentiometric","a2/apparent","NH(1+), ar.NH(1+)","basic",6.87
"15855","N=2(N1(C(=NC(=C1)CN(CC)CC)C(C)=CC=2C3(=CC=CC=C3)))","CC1=CC(=NN2C=C(CN(CC)CC)N=C21)C1=CC=CC=C1","InChI=1S/C18H22N4/c1-4-21(5-2)12-16-13-22-18(19-16)14(3)11-17(20-22)15-9-7-6-8-10-15/h6-11,13H,4-5,12H2,1-3H3","GOEBPUFTSLZVLG-UHFFFAOYSA-N","?, ?","25","potentiometric","a2/apparent","?, ?","basic",8.79
"15859","O3(CCN(CCNC2(=NN=C(C1(=CC=CC=C1))C=C2C))CC3)","CC1=CC(=NN=C1NCCN1CCOCC1)C1C=CC=CC=1","InChI=1S/C17H22N4O/c1-14-13-16(15-5-3-2-4-6-15)19-20-17(14)18-7-8-21-9-11-22-12-10-21/h2-6,13H,7-12H2,1H3,(H,18,20)","LDMWSLGGVTVJPG-UHFFFAOYSA-N","?, ?","25","spectrophotometric","a1/apparent","NH(+), ?","basic",7.05
"13456","N1(=C(NN)C=C(C)C=2(C1=CC=CC=2))","CC1=CC(NN)=NC2=CC=CC=C21","InChI=1S/C10H11N3/c1-7-6-10(13-11)12-9-5-3-2-4-8(7)9/h2-6H,11H2,1H3,(H,12,13)","FLDYBLAUDDQRAB-UHFFFAOYSA-N","?, ?","22","potentiometric","a2/apparent","?, ?","basic",8.35
"10166","[O-]C1(=[NH+]C=NC(=C1)C)","CC1=CC(O)=NC=N1","InChI=1S/C5H6N2O/c1-4-2-5(8)7-3-6-4/h2-3H,1H3,(H,6,7,8)","LHRIUKSRPHFASO-UHFFFAOYSA-N","?, ?",,"potentiometric","a1/apparent","?, ?","basic",9.0
"12866","[O-]C1(=NC=NC(=C1N)N)","NC1=NC=NC(O)=C1N","InChI=1S/C4H6N4O/c5-2-3(6)7-1-8-4(2)9/h1H,5H2,(H3,6,7,8,9)","PWRHKLKFADDKHS-UHFFFAOYSA-N","?, ?",,"potentiometric","a3/apparent","?, ?","basic",9.86
"14032","N=2(C1(=C(C=CC=C1)NC=2CN))","NCC1NC2C=CC=CC=2N=1","InChI=1S/C8H9N3/c9-5-8-10-6-3-1-2-4-7(6)11-8/h1-4H,5,9H2,(H,10,11)","UCOSRTUSVXHIMK-UHFFFAOYSA-N","?, ?","20","mean from 2","a2/apparent","=NH-(+), CH2NH3(+)","basic",8.02
"16608","P(=O)([O-])C([NH2+]CC1(=CC=NC=C1))C2(=C(O)C=CC=C2)","OC1=CC=CC=C1C(NCC1C=CN=CC=1)P(O)=O","InChI=1S/C13H15N2O3P/c16-12-4-2-1-3-11(12)13(19(17)18)15-9-10-5-7-14-8-6-10/h1-8,13,15-16,19H,9H2,(H,17,18)","QVKNLNQYIXTIHZ-UHFFFAOYSA-N","?, ?","20","mean from 2","b2/apparent","?, ?","basic",8.05
"12924","[S-]C1(=[NH+]C(=CC(=N1)C)C)","CC1=CC(C)=NC(S)=N1","InChI=1S/C6H8N2S/c1-4-3-5(2)8-6(9)7-4/h3H,1-2H3,(H,7,8,9)","RAFAYWADRVMWFA-UHFFFAOYSA-N","?, ?",,,"a1/apparent","?, ?","basic",8.5
"16456","N(=C(C1(=C(C=CC=C1)C))C2(=C(C=CC=C2)C))CCN(C)C","CN(C)CCN=C(C1C=CC=CC=1C)C1C=CC=CC=1C","InChI=1S/C19H24N2/c1-15-9-5-7-11-17(15)19(20-13-14-21(3)4)18-12-8-6-10-16(18)2/h5-12H,13-14H2,1-4H3","XDVNDXZVEDBVKA-UHFFFAOYSA-N","?, ?","25","potentiometric","a2/apparent","?, ?","basic",8.5
"16610","P(=O)([O-])C([NH2+]CC1(=NC=CC=C1))C2(=C(O)C=CC=C2)","OC1=CC=CC=C1C(NCC1=CC=CC=N1)P(O)=O","InChI=1S/C13H15N2O3P/c16-12-7-2-1-6-11(12)13(19(17)18)15-9-10-5-3-4-8-14-10/h1-8,13,15-16,19H,9H2,(H,17,18)","GZGYXDMWBFBKOI-UHFFFAOYSA-N","?, ?","20","mean from 2","b2/apparent","?, ?","basic",8.08
"16891","O3(CCN(CCNC2(=NN=C(C1(=CC=CC=C1))C=C2CC))CC3)","CCC1=CC(=NN=C1NCCN1CCOCC1)C1C=CC=CC=1","InChI=1S/C18H24N4O/c1-2-15-14-17(16-6-4-3-5-7-16)20-21-18(15)19-8-9-22-10-12-23-13-11-22/h3-7,14H,2,8-13H2,1H3,(H,19,21)","OJRBCZYVLIYUNO-UHFFFAOYSA-N","?, ?","25","potentiometric","a1/apparent","NH(+), ?","basic",7.08
"17216","N3(=CC=C(C1(=NC=2(C=CC=CC=2(N1))))C=C3)","C1=CN=CC=C1C1NC2C=CC=CC=2N=1","InChI=1S/C12H9N3/c1-2-4-11-10(3-1)14-12(15-11)9-5-7-13-8-6-9/h1-8H,(H,14,15)","UYWWLYCGNNCLKE-UHFFFAOYSA-N","?, ?, ?","25","spectrophotometric","a3/apparent","NH, NH, NH","basic",10.78
"16970","O=C([O-])CC(C1(=[NH+]C=CN1))C2(=NC=CN2)","OC(O)=CC(C1NC=CN=1)C1NC=CN=1","InChI=1S/C9H10N4O2/c14-7(15)5-6(8-10-1-2-11-8)9-12-3-4-13-9/h1-6,14-15H,(H,10,11)(H,12,13)","AERKCKJUJKBKSI-UHFFFAOYSA-N","?, ?","24.9","potentiometric","a2/apparent","NH, NH","basic",6.9
"16861","N1(=C(NC=C1CC=2(N=CNC=2))CC4(=NC(CC=3(NC=NC=3))=CN4))","C(C1=CN=CN1)C1=CNC(CC2NC=C(CC3=CNC=N3)N=2)=N1","InChI=1S/C15H16N8/c1(10-4-16-8-20-10)12-6-18-14(22-12)3-15-19-7-13(23-15)2-11-5-17-9-21-11/h4-9H,1-3H2,(H,16,20)(H,17,21)(H,18,22)(H,19,23)","BCFQAISFKUFSRD-UHFFFAOYSA-N","?, ?, ?, ?","24.85","potentiometric","a4/apparent","NH, NH, NH, NH","basic",7.49
"16817","N(=C(C1(=C(C=CC=C1)C))C2(=C(C=CC=C2)C))CCN(CC)CC","CC1C=CC=CC=1C(=NCCN(CC)CC)C1C=CC=CC=1C","InChI=1S/C21H28N2/c1-5-23(6-2)16-15-22-21(19-13-9-7-11-17(19)3)20-14-10-8-12-18(20)4/h7-14H,5-6,15-16H2,1-4H3","QPBVZNNWDOXBPV-UHFFFAOYSA-N","?, ?","25","potentiometric","a2/apparent","?, ?","basic",8.8
"13718","ON=C(N)CC(N)C1(=CC=CC=C1)","NC(CC(N)N=O)C1C=CC=CC=1","InChI=1S/C9H13N3O/c10-8(6-9(11)12-13)7-4-2-1-3-5-7/h1-5,8-9H,6,10-11H2","LTMMURWIEKUNGI-UHFFFAOYSA-N","?, ?","20","potentiometric","a2/apparent","?, ?","basic",8.0
"12901","N1(=C(C=CC=C1)CNC)","CNCC1C=CC=CN=1","InChI=1S/C7H10N2/c1-8-6-7-4-2-3-5-9-7/h2-5,8H,6H2,1H3","OOTKJPZEEVPWCR-UHFFFAOYSA-N","?, ?","29","mean from 2","a2/thermodynamic","?, ?","basic",8.96
"15184","S1(C(=NC(=C1)C2(=NC(=NC=C2)NC(=N)N))N)","NC1=NC(=CS1)C1C=CN=C(NC(N)=N)N=1","InChI=1S/C8H9N7S/c9-6(10)15-8-12-2-1-4(14-8)5-3-16-7(11)13-5/h1-3H,(H2,11,13)(H4,9,10,12,14,15)","DJLUPJPXOUPLLE-UHFFFAOYSA-N","?, ?","23","spectrophotometric","a2/apparent","NH3+, NH3+","basic",9.2
"15870","OC3(=CC=C(C=NC2(=CC=C(C1(=CC=C(N)C=C1))C=C2))C=C3)","NC1C=CC(=CC=1)C1C=CC(=CC=1)N=CC1C=CC(O)=CC=1","InChI=1S/C19H16N2O/c20-17-7-3-15(4-8-17)16-5-9-18(10-6-16)21-13-14-1-11-19(22)12-2-14/h1-13,22H,20H2","PDVSNXIRLRXOOK-UHFFFAOYSA-N","?, ?","25","spectrophotometric","a2/apparent","?, ?","basic",6.86
"15251","O=[N+]([O-])C1(=CC(=C(C)C=C1)C(=NCCCN(C)C)C2(=CC=CC=C2))","CC1C=CC(=CC=1C(=NCCCN(C)C)C1C=CC=CC=1)[N+]([O-])=O","InChI=1S/C19H23N3O2/c1-15-10-11-17(22(23)24)14-18(15)19(16-8-5-4-6-9-16)20-12-7-13-21(2)3/h4-6,8-11,14H,7,12-13H2,1-3H3","AXMATLWUTGDKSX-UHFFFAOYSA-N","?, ?","25","potentiometric","a2/apparent","?, ?","basic",8.8
"15105","O2(CCN(CC(O)CN1(CCOCC1))CC2)","OC(CN1CCOCC1)CN1CCOCC1","InChI=1S/C11H22N2O3/c14-11(9-12-1-5-15-6-2-12)10-13-3-7-16-8-4-13/h11,14H,1-10H2","YTAILAZJMHRYOR-UHFFFAOYSA-N","?, ?","25","potentiometric","a2/apparent","?, ?","basic",6.98
"16981","N1(CCCCC1)(CCNC2(=CC=CC=C2))","C(CN1CCCCC1)NC1C=CC=CC=1","InChI=1S/C13H20N2/c1-3-7-13(8-4-1)14-9-12-15-10-5-2-6-11-15/h1,3-4,7-8,14H,2,5-6,9-12H2","IZFPPYZZPOUEIT-UHFFFAOYSA-N","?, ?",,"potentiometric","a2/apparent","?, ?","basic",9.2
"10111","N1(=CC(=CC=C1)CN)","NCC1C=NC=CC=1","InChI=1S/C6H8N2/c7-4-6-2-1-3-8-5-6/h1-3,5H,4,7H2","HDOUGSFASVGDCS-UHFFFAOYSA-N","?, ?","25","mean from 2","a1/apparent","?, ?","basic",8.33
"15949","ClC1(=C(C(=CC=C1)C)C(=NCCCN(C)C)C2(=CC=CC=C2))","CC1=CC=CC(Cl)=C1C(=NCCCN(C)C)C1C=CC=CC=1","InChI=1S/C19H23ClN2/c1-15-9-7-12-17(20)18(15)19(16-10-5-4-6-11-16)21-13-8-14-22(2)3/h4-7,9-12H,8,13-14H2,1-3H3","WBRMUNMLNMXAQM-UHFFFAOYSA-N","?, ?","25","potentiometric","a2/apparent","?, ?","basic",8.8
"10687","O=C([O-])CC([NH3+])C1(=NC=CC=C1)","NC(C=C(O)O)C1=CC=CC=N1","InChI=1S/C8H10N2O2/c9-6(5-8(11)12)7-3-1-2-4-10-7/h1-6,11-12H,9H2","XBQMNJLDUCGMBD-UHFFFAOYSA-N","?, ?","23","potentiometric","b1/apparent","?, ?","basic",9.22
"12902","N1(C(CN(C)CC1)C)(C)","CN1CC(C)N(C)CC1","InChI=1S/C7H16N2/c1-7-6-8(2)4-5-9(7)3/h7H,4-6H2,1-3H3","UAIVFDJJMVMUGY-UHFFFAOYSA-N","?, ?","25","potentiometric","b1/apparent","?, ?","basic",8.36
"15950","ClC2(=C(C(=NCCCN(C)C)C1(=C(C=CC=C1)C))C=CC=C2)","CC1C=CC=CC=1C(=NCCCN(C)C)C1C=CC=CC=1Cl","InChI=1S/C19H23ClN2/c1-15-9-4-5-10-16(15)19(21-13-8-14-22(2)3)17-11-6-7-12-18(17)20/h4-7,9-12H,8,13-14H2,1-3H3","NEYMHCJREVHUQT-UHFFFAOYSA-N","?, ?","25","potentiometric","a2/apparent","?, ?","basic",8.95
"10106","N1(=CC=C(CN)C=C1)","NCC1C=CN=CC=1","InChI=1S/C6H8N2/c7-5-6-1-3-8-4-2-6/h1-4H,5,7H2","TXQWFIVRZNOPCK-UHFFFAOYSA-N","?, ?","25","potentiometric","a1/apparent","?, ?","basic",8.3
"16460","ClC2(=C(C(=NCCCN(C)C)C1(=CC=CC=C1))C=CC=C2)","CN(C)CCCN=C(C1C=CC=CC=1Cl)C1C=CC=CC=1","InChI=1S/C18H21ClN2/c1-21(2)14-8-13-20-18(15-9-4-3-5-10-15)16-11-6-7-12-17(16)19/h3-7,9-12H,8,13-14H2,1-2H3","JETIEPOUCIUCHK-UHFFFAOYSA-N","?, ?","25","potentiometric","a1/apparent","?, ?","basic",9.0
"15260","O(C4(=CC=1(C(=NC=CC=1C(O)C2(N3(CC(C=C)C(C2)CC3)))C=C4)))C","COC1C=CC2=NC=CC(C(O)C3CC4CCN3CC4C=C)=C2C=1","InChI=1S/C20H24N2O2/c1-3-13-12-22-9-7-14(13)10-19(22)20(23)16-6-8-21-18-5-4-15(24-2)11-17(16)18/h3-6,8,11,13-14,19-20,23H,1,7,9-10,12H2,2H3","LOUPRKONTZGTKE-UHFFFAOYSA-N","?, ?","24","mean from 3","b1/apparent","?, ?","basic",8.26
"13711","IC1(=NC(CC([NH3+])C(=O)[O-])=C(N1)I)","N=C(CC1N=C(I)NC=1I)C(O)O","InChI=1S/C6H7I2N3O2/c7-4-3(10-6(8)11-4)1-2(9)5(12)13/h5,9,12-13H,1H2,(H,10,11)","SKPITLSVFDOTCM-UHFFFAOYSA-N","?, ?","25","potentiometric","a2/thermodynamic","?, ?","basic",9.76
"16353","O(C4(=CC=1(C(=NC=CC=1C(O)C2(N3(CC(CC)C(C2)CC3)))C=C4)))CC","CCC1CN2CCC1CC2C(O)C1C=CN=C2C=CC(=CC2=1)OCC","InChI=1S/C21H28N2O2/c1-3-14-13-23-10-8-15(14)11-20(23)21(24)17-7-9-22-19-6-5-16(25-4-2)12-18(17)19/h5-7,9,12,14-15,20-21,24H,3-4,8,10-11,13H2,1-2H3","SUWZHLCNFQWNPE-UHFFFAOYSA-N","?, ?","22","spectrophotometric","b1/apparent","?, ?","basic",8.5
"16473","OC2(=C(C(=NCCCN(C)C)C1(=CC=CC=C1))C=CC=C2)","CN(C)CCCN=C(C1C=CC=CC=1O)C1C=CC=CC=1","InChI=1S/C18H22N2O/c1-20(2)14-8-13-19-18(15-9-4-3-5-10-15)16-11-6-7-12-17(16)21/h3-7,9-12,21H,8,13-14H2,1-2H3","PGZHHEDHCBPLAB-UHFFFAOYSA-N","?, ?","25","potentiometric","a2/apparent","?, ?","basic",9.3
"15948","ClC1(=CC(=C(C)C=C1)C(=NCCCN(C)C)C2(=CC=CC=C2))","CC1C=CC(Cl)=CC=1C(=NCCCN(C)C)C1C=CC=CC=1","InChI=1S/C19H23ClN2/c1-15-10-11-17(20)14-18(15)19(16-8-5-4-6-9-16)21-12-7-13-22(2)3/h4-6,8-11,14H,7,12-13H2,1-3H3","YNTGWCREKHQYNQ-UHFFFAOYSA-N","?, ?","25","potentiometric","a2/apparent","?, ?","basic",8.8
"14783","O(CCN2(C1(=C(C=CC=C1)N=C2CN4(CCN(CCCCN3(N=CC=C3))CC4))))CC","CCOCCN1C2C=CC=CC=2N=C1CN1CCN(CCCCN2C=CC=N2)CC1","InChI=1S/C23H34N6O/c1-2-30-19-18-29-22-9-4-3-8-21(22)25-23(29)20-27-16-14-26(15-17-27)11-5-6-12-28-13-7-10-24-28/h3-4,7-10,13H,2,5-6,11-12,14-20H2,1H3","CXFNDBLYDZRFQL-UHFFFAOYSA-N","?, ?","25","potentiometric","a2/apparent","?, ?","basic",7.9
"10913","O=C(OC)C(N)CC=1(N=CNC=1)","COC(O)C(=N)CC1=CNC=N1","InChI=1S/C7H11N3O2/c1-12-7(11)6(8)2-5-3-9-4-10-5/h3-4,7-8,11H,2H2,1H3,(H,9,10)","YOVNDOYXCCJMJC-UHFFFAOYSA-N","?, ?, ?, ?","25","potentiometric","a2/apparent","NH3(1+), ?, NH(1+), ?","basic",7.35
"10920","IC=1(NC=NC=1CC([NH3+])C(=O)[O-])","N=C(CC1N=CNC=1I)C(O)O","InChI=1S/C6H8IN3O2/c7-5-4(9-2-10-5)1-3(8)6(11)12/h2,6,8,11-12H,1H2,(H,9,10)","QSYWXHBWKKPCSZ-UHFFFAOYSA-N","?, ?","25","potentiometric","a2/thermodynamic","?, ?","basic",8.62
"10508","ON=C(N)C(CN)C","CC(CN)C(N)N=O","InChI=1S/C4H11N3O/c1-3(2-5)4(6)7-8/h3-4H,2,5-6H2,1H3","IJNJVPHRCDJSPV-UHFFFAOYSA-N","?, ?","20","potentiometric","a2/apparent","?, ?","basic",9.15
"15977","N(=C(C1(=C(N)C=CC=C1))C2(=C(C=CC=C2)C))CCCN(C)C","CC1C=CC=CC=1C(=NCCCN(C)C)C1C=CC=CC=1N","InChI=1S/C19H25N3/c1-15-9-4-5-10-16(15)19(21-13-8-14-22(2)3)17-11-6-7-12-18(17)20/h4-7,9-12H,8,13-14,20H2,1-3H3","AAXREIIUOMXTKQ-UHFFFAOYSA-N","?, ?","25","potentiometric","a2/apparent","?, ?","basic",9.0
"15002","P(C1(=NC=CN1))(C2(=NC=CN2))C3(=NC=CN3)","C1=CNC(=N1)P(C1NC=CN=1)C1NC=CN=1","InChI=1S/C9H9N6P/c1-2-11-7(10-1)16(8-12-3-4-13-8)9-14-5-6-15-9/h1-6H,(H,10,11)(H,12,13)(H,14,15)","LCORTBULURHQHJ-UHFFFAOYSA-N","?, ?, ?","18","potentiometric","a3/apparent","H, H, H","basic",7.44
"17761","ON=C(N)CCN","NCCC(N)N=O","InChI=1S/C3H9N3O/c4-2-1-3(5)6-7/h3H,1-2,4-5H2","DFFYLYLFQCHFPM-UHFFFAOYSA-N","?, ?","20","potentiometric","a2/apparent","?, ?","basic",9.15
"10507","ON=C(N)CC(N)C","CC(N)CC(N)N=O","InChI=1S/C4H11N3O/c1-3(5)2-4(6)7-8/h3-4H,2,5-6H2,1H3","IVDYYIROFBKMBV-UHFFFAOYSA-N","?, ?","20","potentiometric","a2/apparent","?, ?","basic",9.15
"16392","N(=C(C=1(C=2(C(C=CC=1)=CC=CC=2)))C3(=C(C=CC=C3)C))CCCN(C)C","CC1C=CC=CC=1C(=NCCCN(C)C)C1=CC=CC2=CC=CC=C21","InChI=1S/C23H26N2/c1-18-10-4-6-13-20(18)23(24-16-9-17-25(2)3)22-15-8-12-19-11-5-7-14-21(19)22/h4-8,10-15H,9,16-17H2,1-3H3","UZVKNEXNZXNGIF-UHFFFAOYSA-N","?, ?","25","potentiometric","a2/apparent","?, ?","basic",8.8