"Molecule name","OriginalSmiles","Canonical_QSARr","InChI_Code_QSARr","InChI Key_QSARr","Salt_Solvent (Concatenate)","temp","method","type","group","basicOrAcidic","pKa"
"14301","N1(=CC(=CC=C1)CCCCN)","NCCCCC1C=NC=CC=1","InChI=1S/C9H14N2/c10-6-2-1-4-9-5-3-7-11-8-9/h3,5,7-8H,1-2,4,6,10H2","WSPOELFRDPKVAZ-UHFFFAOYSA-N","?, ?","25","potentiometric","a1/apparent","?, ?","basic",10.16
"16837","ClC2(=CC=C(NC1(=NC(NCCN(CC)CC)=CC(=N1)C))C=C2)","CC1C=C(NCCN(CC)CC)N=C(NC2C=CC(Cl)=CC=2)N=1","InChI=1S/C17H24ClN5/c1-4-23(5-2)11-10-19-16-12-13(3)20-17(22-16)21-15-8-6-14(18)7-9-15/h6-9,12H,4-5,10-11H2,1-3H3,(H2,19,20,21,22)","AWWYEKXZSQSKDR-UHFFFAOYSA-N","?, ?","25","potentiometric","a2/apparent","?, ?","basic",9.05
"11304","N(CCN(CC)CC)(CC)CC","CCN(CCN(CC)CC)CC","InChI=1S/C10H24N2/c1-5-11(6-2)9-10-12(7-3)8-4/h5-10H2,1-4H3","DIHKMUNUGQVFES-UHFFFAOYSA-N","?, ?","25","potentiometric","a2/thermodynamic","?, ?","basic",9.55
"16032","N(CC=C)(CC=C)CCCN(CC=C)CC=C","C=CCN(CC=C)CCCN(CC=C)CC=C","InChI=1S/C15H26N2/c1-5-10-16(11-6-2)14-9-15-17(12-7-3)13-8-4/h5-8H,1-4,9-15H2","KKAIREMKWOORCU-UHFFFAOYSA-N","?, ?","22","potentiometric","a1/apparent","?, ?","basic",8.8
"11057","N1(CCCC1)(CCN2(CCCC2))","C(CN1CCCC1)N1CCCC1","InChI=1S/C10H20N2/c1-2-6-11(5-1)9-10-12-7-3-4-8-12/h1-10H2","HBIXFRSMLXSLQI-UHFFFAOYSA-N","?, ?","25","potentiometric","a2/thermodynamic","NH+, NH+","basic",9.47
"15925","OC(C=1(C=2(C(N=CC=1)=CC=CC=2)))C3(N4(CC(C=C)C(C3)CC4))","C=CC1CN2CCC1CC2C(O)C1=CC=NC2=CC=CC=C21","InChI=1S/C19H22N2O/c1-2-13-12-21-10-8-14(13)11-18(21)19(22)16-7-9-20-17-6-4-3-5-15(16)17/h2-7,9,13-14,18-19,22H,1,8,10-12H2","KMPWYEUPVWOPIM-UHFFFAOYSA-N","?, ?, ?, ?","23","mean from 3","b2/apparent","?, ?, ?, ?","basic",9.59
"10308","N=1(C(=CNC=1)CCN)","NCCC1=CNC=N1","InChI=1S/C5H9N3/c6-2-1-5-3-7-4-8-5/h3-4H,1-2,6H2,(H,7,8)","NTYJJOPFIAHURM-UHFFFAOYSA-N","?, ?, ?, ?","25","mean from 8","a2/thermodynamic","H%+&, ?, H%+&, ?","basic",9.87
"12262","N1(C(C)C)(CCC(NNC(C)C)CC1)","CC(C)NNC1CCN(CC1)C(C)C","InChI=1S/C11H25N3/c1-9(2)12-13-11-5-7-14(8-6-11)10(3)4/h9-13H,5-8H2,1-4H3","AEWGXNVJFDKCRJ-UHFFFAOYSA-N","?, ?","20","potentiometric","a2/apparent","?, ?","basic",9.55
"16419","O=C([O-])C1(CN(C2(CC4(=CNC=3(C4(=C(C2(C1)(O))C=CC=3)))))C)","CN1CC(CC2(O)C1CC1=CNC3=CC=CC2=C13)=C(O)O","InChI=1S/C16H18N2O3/c1-18-8-10(15(19)20)6-16(21)11-3-2-4-12-14(11)9(7-17-12)5-13(16)18/h2-4,7,13,17,19-21H,5-6,8H2,1H3","PIFCDXONLFOGQZ-UHFFFAOYSA-N","?, ?, ?, ?, ?","22","potentiometric","a2/apparent","?, ?, ?, ?, ?","basic",9.2
"14309","N(CC1(=CC=CC=C1))CCN","NCCNCC1C=CC=CC=1","InChI=1S/C9H14N2/c10-6-7-11-8-9-4-2-1-3-5-9/h1-5,11H,6-8,10H2","ACYBVNYNIZTUIL-UHFFFAOYSA-N","?, ?","25","potentiometric","a2/apparent","?, ?","basic",9.41
"16119","OCCNC2(CCN(CC1(=CC=CC=C1))CC2)","OCCNC1CCN(CC2C=CC=CC=2)CC1","InChI=1S/C14H22N2O/c17-11-8-15-14-6-9-16(10-7-14)12-13-4-2-1-3-5-13/h1-5,14-15,17H,6-12H2","KXSSEEPLNUNWMD-UHFFFAOYSA-N","?, ?","22","potentiometric","a1/apparent","?, ?","basic",9.24
"10641","N(CC1(=CC=C(C)C=C1))CCN","CC1=CC=C(CNCCN)C=C1","InChI=1S/C10H16N2/c1-9-2-4-10(5-3-9)8-12-7-6-11/h2-5,12H,6-8,11H2,1H3","FAMIROKBNMLFLB-UHFFFAOYSA-N","?, ?","25","potentiometric","a2/apparent","?, ?","basic",9.41
"14300","N1(=CC=C(CCCCN)C=C1)","NCCCCC1C=CN=CC=1","InChI=1S/C9H14N2/c10-6-2-1-3-9-4-7-11-8-5-9/h4-5,7-8H,1-3,6,10H2","RKWNXDUZHXYGLN-UHFFFAOYSA-N","?, ?","25","potentiometric","a1/apparent","?, ?","basic",10.18
"10634","N(CCN)CCC1(=CC=CC=C1)","NCCNCCC1C=CC=CC=1","InChI=1S/C10H16N2/c11-7-9-12-8-6-10-4-2-1-3-5-10/h1-5,12H,6-9,11H2","CPCHVLBDLZEKTD-UHFFFAOYSA-N","?, ?","25","potentiometric","a2/apparent","?, ?","basic",9.44
"13538","O=C(NCCC=1(N=CNC=1))CCN","NCC/C(/O)=N\CCC1=CNC=N1","InChI=1S/C8H14N4O/c9-3-1-8(13)11-4-2-7-5-10-6-12-7/h5-6H,1-4,9H2,(H,10,12)(H,11,13)","ANRUJJLGVODXIK-UHFFFAOYSA-N","?, ?","24.9","potentiometric","a2/apparent","?, ?","basic",9.21
"17386","N(CCN)(C)C","CN(C)CCN","InChI=1S/C4H12N2/c1-6(2)4-3-5/h3-5H2,1-2H3","DILRJUIACXKSQE-UHFFFAOYSA-N","?, ?","25","potentiometric","a2/apparent","?, ?","basic",9.53
"17799","N1(C(NCCC1)C)","CC1NCCCN1","InChI=1S/C5H12N2/c1-5-6-3-2-4-7-5/h5-7H,2-4H2,1H3","CQMZYAFVTNOAST-UHFFFAOYSA-N","?, ?","25",,"b1/apparent","?, ?","basic",9.09
"10638","N1(=CC=C(CCCCCN)C=C1)","NCCCCCC1C=CN=CC=1","InChI=1S/C10H16N2/c11-7-3-1-2-4-10-5-8-12-9-6-10/h5-6,8-9H,1-4,7,11H2","HSJIQRNYRSTOFD-UHFFFAOYSA-N","?, ?","25","potentiometric","a1/apparent","?, ?","basic",10.3
"10501","N(CCNC)CCN","CNCCNCCN","InChI=1S/C5H15N3/c1-7-4-5-8-3-2-6/h7-8H,2-6H2,1H3","QATBRNFTOCXULG-UHFFFAOYSA-N","?, ?, ?","25","potentiometric","b3/thermodynamic","ammonium, ammonium, ammonium","basic",10.24
"10068","NC1(C(N)CCCC1)","NC1CCCCC1N","InChI=1S/C6H14N2/c7-5-3-1-2-4-6(5)8/h5-6H,1-4,7-8H2","SSJXIUAHEKJCMH-UHFFFAOYSA-N","?, ?, ?, ?","20","mean from 2","a1/apparent","?, ?, ?, ?","basic",9.84
"17672","OCCNCCN","NCCNCCO","InChI=1S/C4H12N2O/c5-1-2-6-3-4-7/h6-7H,1-5H2","LHIJANUOQQMGNT-UHFFFAOYSA-N","?, ?","25","mean from 2","a2/apparent","?, ?","basic",9.67
"10402","OCCCNCCN","NCCNCCCO","InChI=1S/C5H14N2O/c6-2-4-7-3-1-5-8/h7-8H,1-6H2","KTLIZDDPOZZHCD-UHFFFAOYSA-N","?, ?","25","potentiometric","a2/apparent","?, ?","basic",9.67
"15448","OC1(=C(C=CC=C1)CN2(CCCNCCCNCCC2))","OC1C=CC=CC=1CN1CCCNCCCNCCC1","InChI=1S/C16H27N3O/c20-16-7-2-1-6-15(16)14-19-12-4-10-17-8-3-9-18-11-5-13-19/h1-2,6-7,17-18,20H,3-5,8-14H2","IHPZATYOQHJDKE-UHFFFAOYSA-N","?, ?","24.9","potentiometric","a2/apparent","=N-H, =N-H","basic",9.87
"16229","O=C([O-])C(NC(=O)CC[NH3+])CC=1(N(C=NC=1)C)","CN1C=NC=C1CC(/N=C(/O)\CCN)=C(O)O","InChI=1S/C10H16N4O3/c1-14-6-12-5-7(14)4-8(10(16)17)13-9(15)2-3-11/h5-6,16-17H,2-4,11H2,1H3,(H,13,15)","MAPCBGPQHARUJY-UHFFFAOYSA-N","?, ?","22","potentiometric","a2/apparent","?, ?","basic",9.53
"17371","NC(C(N)C)C","CC(N)C(C)N","InChI=1S/C4H12N2/c1-3(5)4(2)6/h3-4H,5-6H2,1-2H3","GHWVXCQZPNWFRO-UHFFFAOYSA-N","?, ?, ?, ?","25","mean from 2","a1/apparent","?, ?, ?, ?","basic",9.88
"16987","N(CC1(C(N)C2(CCC1C2(C)(C))(C)))(C)C","CC1(C)C2CCC1(C)C(N)C2CN(C)C","InChI=1S/C13H26N2/c1-12(2)10-6-7-13(12,3)11(14)9(10)8-15(4)5/h9-11H,6-8,14H2,1-5H3","FANXZSFCHXEAAY-UHFFFAOYSA-N","?, ?, ?, ?","25",,"a2/apparent","?, ?, ?, ?","basic",9.84
"10388","N(CCN)(CC)CC","CCN(CCN)CC","InChI=1S/C6H16N2/c1-3-8(4-2)6-5-7/h3-7H2,1-2H3","UDGSVBYJWHOHNN-UHFFFAOYSA-N","?, ?","24","mean from 3","b1/thermodynamic","?, ?","basic",9.93
"14923","N1(=C(N=C(C)C=C1N)NCCN(CC)CC)","CC1C=C(N)N=C(NCCN(CC)CC)N=1","InChI=1S/C11H21N5/c1-4-16(5-2)7-6-13-11-14-9(3)8-10(12)15-11/h8H,4-7H2,1-3H3,(H3,12,13,14,15)","GMCWPOMYCJCLSF-UHFFFAOYSA-N","?, ?","25","potentiometric","a2/apparent","?, ?","basic",9.8
"17643","N(CCCN)(C)C","CN(C)CCCN","InChI=1S/C5H14N2/c1-7(2)5-3-4-6/h3-6H2,1-2H3","IUNMPGNGSSIWFP-UHFFFAOYSA-N","?, ?","25",,"a2/apparent","?, ?","basic",10.03
"17383","NC(CN)(C)C","CC(C)(N)CN","InChI=1S/C4H12N2/c1-4(2,6)3-5/h3,5-6H2,1-2H3","OPCJOXGBLDJWRM-UHFFFAOYSA-N","?, ?","25","potentiometric","a2/apparent","?, ?","basic",10.0
"14656","N1(=C(N=C(N)N=C1NC(=N)N)NC(=N)N)","NC(=N)NC1=NC(N)=NC(NC(N)=N)=N1","InChI=1S/C5H10N10/c6-1(7)11-4-13-3(10)14-5(15-4)12-2(8)9/h(H10,6,7,8,9,10,11,12,13,14,15)","JAMXTHDKBMTHAF-UHFFFAOYSA-N","?, ?",,"mean from 2","a1/apparent","?, ?","basic",9.8
"10403","OC(CNCCN)C","CC(O)CNCCN","InChI=1S/C5H14N2O/c1-5(8)4-7-3-2-6/h5,7-8H,2-4,6H2,1H3","CWKVFRNCODQPDB-UHFFFAOYSA-N","?, ?","25","potentiometric","a/apparent","prot., prot.","basic",9.86
"12380","N1(CCC(N)CC1)(CC2(=CC=CC=C2))","NC1CCN(CC2C=CC=CC=2)CC1","InChI=1S/C12H18N2/c13-12-6-8-14(9-7-12)10-11-4-2-1-3-5-11/h1-5,12H,6-10,13H2","YUBDLZGUSSWQSS-UHFFFAOYSA-N","?, ?","22","potentiometric","a1/apparent","?, ?","basic",9.79
"10322","[O-]C1(=[NH+]C=CC(=N1)N)","NC1C=CN=C(O)N=1","InChI=1S/C4H5N3O/c5-3-1-2-6-4(8)7-3/h1-2H,(H3,5,6,7,8)","OPTASPLRGRRNAP-UHFFFAOYSA-N","?, ?","21","mean from 7","a1/apparent","?, ?","basic",12.25
"14563","O=[N+]([O-])C1(=C([O-])N=C([O-])N=C1)","[O-][N+](=O)C1=CN=C(O)N=C1O","InChI=1S/C4H3N3O4/c8-3-2(7(10)11)1-5-4(9)6-3/h1H,(H2,5,6,8,9)","TUARVSWVPPVUGS-UHFFFAOYSA-N","?, ?",,"mean from 2","a2/apparent","?, ?","basic",11.5
"12309","N(CCCN(C)C)(CCCN(C)C)C","CN(CCCN(C)C)CCCN(C)C","InChI=1S/C11H27N3/c1-12(2)8-6-10-14(5)11-7-9-13(3)4/h6-11H2,1-5H3","SKCNNQDRNPQEFU-UHFFFAOYSA-N","?, ?, ?","22","potentiometric","a3/apparent","?, ?, ?","basic",10.0
"13177","[O-]C1(=[NH+]C=C(C)C(=N1)N)","CC1=CN=C(O)N=C1N","InChI=1S/C5H7N3O/c1-3-2-7-5(9)8-4(3)6/h2H,1H3,(H3,6,7,8,9)","LRSASMSXMSNRBT-UHFFFAOYSA-N","?, ?",,"mean from 2","a1/apparent","?, ?","basic",12.4
"15902","O2(C1(=C(OC)C=CC5(=C1C34(C2CCCC3C(N(C)CC4)C5O))))","COC1C=CC2C(O)C3C4CCCC5OC=1C=2C45CCN3C","InChI=1S/C18H23NO3/c1-19-9-8-18-11-4-3-5-13(18)22-17-12(21-2)7-6-10(14(17)18)16(20)15(11)19/h6-7,11,13,15-16,20H,3-5,8-9H2,1-2H3","PMIVBQKAUOYODT-UHFFFAOYSA-N","?, ?",,"potentiometric","a/apparent","?, ?","basic",9.41
"17244","NCCN","NCCN","InChI=1S/C2H8N2/c3-1-2-4/h1-4H2","PIICEJLVQHRZGT-UHFFFAOYSA-N","?, ?","25","mean from 24","b1/apparent","?, ?","basic",9.98
"12379","N1(C(CCC1C2(NC(C)(C)CC2))(C)C)","CC1(C)CCC(N1)C1CCC(C)(C)N1","InChI=1S/C12H24N2/c1-11(2)7-5-9(13-11)10-6-8-12(3,4)14-10/h9-10,13-14H,5-8H2,1-4H3","GQZJHYLQBIFUDT-UHFFFAOYSA-N","?, ?",,"potentiometric","a2/apparent","?, ?","basic",10.3
"16381","N=2(NC(CN1(CCNCCNCC1))=CC=2CN3(CCNCCNCC3))","C(C1=CC(CN2CCNCCNCC2)=NN1)N1CCNCCNCC1","InChI=1S/C17H34N8/c1-2-19-6-10-24(9-5-18-1)14-16-13-17(23-22-16)15-25-11-7-20-3-4-21-8-12-25/h13,18-21H,1-12,14-15H2,(H,22,23)","LIKDWGADZYVEGP-UHFFFAOYSA-N","?, ?, ?, ?","25","potentiometric","a4/apparent","?, ?, ?, ?","basic",11.25
"17373","N(CCNC)C","CNCCNC","InChI=1S/C4H12N2/c1-5-3-4-6-2/h5-6H,3-4H2,1-2H3","KVKFRMCSXWQSNT-UHFFFAOYSA-N","?, ?","25","mean from 3","a2/apparent","?, ?","basic",10.11
"12441","OC(CN1(CCCC1))CN2(CCCC2)","OC(CN1CCCC1)CN1CCCC1","InChI=1S/C11H22N2O/c14-11(9-12-5-1-2-6-12)10-13-7-3-4-8-13/h11,14H,1-10H2","IMHRMXJMEAPBMG-UHFFFAOYSA-N","?, ?","25","potentiometric","a2/thermodynamic","NH+, NH+","basic",9.73
"12600","N(CC(CN)(C)C)(C)C","CN(C)CC(C)(C)CN","InChI=1S/C7H18N2/c1-7(2,5-8)6-9(3)4/h5-6,8H2,1-4H3","ULDIVZQLPBUHAG-UHFFFAOYSA-N","?, ?","24","mean from 2","a1/apparent","?, ?","basic",10.09
"12603","N(CCCN(C)C)(C)C","CN(C)CCCN(C)C","InChI=1S/C7H18N2/c1-8(2)6-5-7-9(3)4/h5-7H2,1-4H3","DMQSHEKGGUOYJS-UHFFFAOYSA-N","?, ?","22","mean from 2","a1/apparent","?, ?","basic",9.8
"16272","N1(=C(N=C(C)C(=C1NCCN(CC)CC)C)N)","CC1=NC(N)=NC(NCCN(CC)CC)=C1C","InChI=1S/C12H23N5/c1-5-17(6-2)8-7-14-11-9(3)10(4)15-12(13)16-11/h5-8H2,1-4H3,(H3,13,14,15,16)","NXBVNGJFXKPUKW-UHFFFAOYSA-N","?, ?","25","potentiometric","a2/apparent","?, ?","basic",9.7
"15064","N1(CCCCC1)(CC=CCN2(CCCCC2))","C(C=CCN1CCCCC1)N1CCCCC1","InChI=1S/C14H26N2/c1-3-9-15(10-4-1)13-7-8-14-16-11-5-2-6-12-16/h7-8H,1-6,9-14H2","GGMZNKPVYRGGPT-UHFFFAOYSA-N","?, ?",,"potentiometric","a2/apparent","NH+, NH+","basic",9.7
"13161","N1(CCNCCNCC1)","C1CNCCNCCN1","InChI=1S/C6H15N3/c1-2-8-5-6-9-4-3-7-1/h7-9H,1-6H2","ITWBWJFEJCHKSN-UHFFFAOYSA-N","?, ?","24.9","spectrophotometric","a1/apparent","NH+, NH+","basic",10.64
"16898","O2(C1(=C(C=CC=C1)CNCCCNCC3(=C(OCC2)C=CC=C3)))","C1NCCCNCC2C=CC=CC=2OCCOC2C=CC=CC=21","InChI=1S/C19H24N2O2/c1-3-8-18-16(6-1)14-20-10-5-11-21-15-17-7-2-4-9-19(17)23-13-12-22-18/h1-4,6-9,20-21H,5,10-15H2","CHCYHXIUMOKQRL-UHFFFAOYSA-N","?, ?","25","mean from 2","b1/apparent","HN%+&-H, HN%+&-H","basic",9.82
"16760","O=C1(N(C(N)=NC1CC(=O)[O-])CCCC(N)C(=O)[O-])","NC1=NC(CC(O)=O)=C(O)N1CCCC(=N)C(O)O","InChI=1S/C10H16N4O5/c11-5(9(18)19)2-1-3-14-8(17)6(4-7(15)16)13-10(14)12/h9,11,17-19H,1-4H2,(H2,12,13)(H,15,16)","ZJAKRXPUSBULEY-UHFFFAOYSA-N","?, ?",,"potentiometric","a4/apparent","?, ?","basic",9.55
"11303","N(CCNCCCC)CCCC","CCCCNCCNCCCC","InChI=1S/C10H24N2/c1-3-5-7-11-9-10-12-8-6-4-2/h11-12H,3-10H2,1-2H3","YRGVKPIUZUOJSJ-UHFFFAOYSA-N","?, ?","25","potentiometric","a2/apparent","?, ?","basic",10.19
"11856","N(CCNCCC)CCC","CCCNCCNCCC","InChI=1S/C8H20N2/c1-3-5-9-7-8-10-6-4-2/h9-10H,3-8H2,1-2H3","VATUKUMHBXZSCD-UHFFFAOYSA-N","?, ?","25","potentiometric","a2/apparent","?, ?","basic",10.27
"17405","OC(CN)CN","NCC(O)CN","InChI=1S/C3H10N2O/c4-1-3(6)2-5/h3,6H,1-2,4-5H2","UYBWIEGTWASWSR-UHFFFAOYSA-N","?, ?","27","mean from 3","a1/apparent","?, ?","basic",9.64
"10383","N(CCN)CCCC","CCCCNCCN","InChI=1S/C6H16N2/c1-2-3-5-8-6-4-7/h8H,2-7H2,1H3","DFPGBRPWDZFIPP-UHFFFAOYSA-N","?, ?","25","potentiometric","a2/apparent","?, ?","basic",10.3
"17648","N(CCN)CCC","CCCNCCN","InChI=1S/C5H14N2/c1-2-4-7-5-3-6/h7H,2-6H2,1H3","CFNHVUGPXZUTRR-UHFFFAOYSA-N","?, ?","25","potentiometric","a2/apparent","?, ?","basic",10.34
"15254","S1(C(C(C(=O)[O-])N2(C1C([NH+]=C2CCCC(N)C(=O)[O-])C(=O)[O-]))(C)C)","CC1(C)SC2C(N=C(CCCC(=N)C(O)O)N2C1=C(O)O)=C(O)O","InChI=1S/C14H21N3O6S/c1-14(2)9(13(22)23)17-7(5-3-4-6(15)11(18)19)16-8(12(20)21)10(17)24-14/h10-11,15,18-23H,3-5H2,1-2H3","WTOBBAMLNCZDKT-UHFFFAOYSA-N","?, ?","20","potentiometric","a2/apparent","?, ?","basic",10.3
"15224","O2(C1(=C(C=CC=C1)CNCCCNCC3(=C(OCCC2)C=CC=C3)))","C1NCCCNCC2C=CC=CC=2OCCCOC2C=CC=CC=21","InChI=1S/C20H26N2O2/c1-3-9-19-17(7-1)15-21-11-5-12-22-16-18-8-2-4-10-20(18)24-14-6-13-23-19/h1-4,7-10,21-22H,5-6,11-16H2","SPDHVOJEOGMDNX-UHFFFAOYSA-N","?, ?","25","mean from 2","b1/apparent","HN%+&-H, HN%+&-H","basic",10.04
"17384","N(CCN)CC","CCNCCN","InChI=1S/C4H12N2/c1-2-6-4-3-5/h6H,2-5H2,1H3","SCZVXVGZMZRGRU-UHFFFAOYSA-N","?, ?","25","mean from 2","a2/apparent","?, ?","basic",10.46
"11851","N(C(C)C)CCNC(C)C","CC(C)NCCNC(C)C","InChI=1S/C8H20N2/c1-7(2)9-5-6-10-8(3)4/h7-10H,5-6H2,1-4H3","MFIGJRRHGZYPDD-UHFFFAOYSA-N","?, ?","25","potentiometric","a2/apparent","?, ?","basic",10.4
"14086","O(CCN(C)C)CCN(C)C","CN(C)CCOCCN(C)C","InChI=1S/C8H20N2O/c1-9(2)5-7-11-8-6-10(3)4/h5-8H2,1-4H3","GTEXIOINCJRBIO-UHFFFAOYSA-N","?, ?",,"potentiometric","a2/apparent","?, ?","basic",9.8
"16395","O2(C1(=C(C=CC=C1)CN(CCCN(CC3(=C(OCC2)C=CC=C3))C)C))","CN1CC2C=CC=CC=2OCCOC2C=CC=CC=2CN(C)CCC1","InChI=1S/C21H28N2O2/c1-22-12-7-13-23(2)17-19-9-4-6-11-21(19)25-15-14-24-20-10-5-3-8-18(20)16-22/h3-6,8-11H,7,12-17H2,1-2H3","XGWOJXFWRLSXAU-UHFFFAOYSA-N","?, ?","25","potentiometric","b1/apparent","HN%+&-H, HN%+&-H","basic",10.14
"13302","N1(CCCC1)(CCCN2(CCCC2))","C(CCN1CCCC1)N1CCCC1","InChI=1S/C11H22N2/c1-2-7-12(6-1)10-5-11-13-8-3-4-9-13/h1-11H2","JMZLEIAXMAFQAO-UHFFFAOYSA-N","?, ?","25","potentiometric","a2/thermodynamic","NH+, NH+","basic",10.04
"11012","O=C([O-])C1(NC2(NC(=[NH+]C1C2)N))","NC1NC2CC(N=1)C(=N2)C(O)O","InChI=1S/C6H10N4O2/c7-6-8-2-1-3(10-6)9-4(2)5(11)12/h2-3,5,11-12H,1H2,(H3,7,8,10)","KKYVREFSVFQIDJ-UHFFFAOYSA-N","?, ?",,,"a2/apparent","?, ?","basic",12.6
"17641","NCC(CN)(C)C","CC(C)(CN)CN","InChI=1S/C5H14N2/c1-5(2,3-6)4-7/h3-4,6-7H2,1-2H3","DDHUNHGZUHZNKB-UHFFFAOYSA-N","?, ?","29","mean from 2","a1/apparent","?, ?","basic",10.19
"15840","O=C([O-])C(NCCNC(C1(=C([O-])C=CC=C1))C(=O)[O-])C2(=C([O-])C=CC=C2)","OC1C=CC=CC=1C(=NCCN=C(C(O)O)C1C=CC=CC=1O)C(O)O","InChI=1S/C18H20N2O6/c21-13-7-3-1-5-11(13)15(17(23)24)19-9-10-20-16(18(25)26)12-6-2-4-8-14(12)22/h1-8,17-18,21-26H,9-10H2","QZLJCXSZJRJSPQ-UHFFFAOYSA-N","?, ?, ?, ?, ?, ?","25","potentiometric","a4/apparent","?, H(1+), H(1+), ?, H(1+), H(1+)","basic",12.05
"14074","N(CC=C)CCCNCC=C","C=CCNCCCNCC=C","InChI=1S/C9H18N2/c1-3-6-10-8-5-9-11-7-4-2/h3-4,10-11H,1-2,5-9H2","AXZLGJYOBMKFHV-UHFFFAOYSA-N","?, ?","22","potentiometric","a1/apparent","?, ?","basic",10.04
"15979","[Br]C2(=CC1(=NC=CC(=C1C=C2)NC(CCCN(CC)CC)C))","CC(CCCN(CC)CC)NC1C=CN=C2C=C(Br)C=CC2=1","InChI=1S/C18H26BrN3/c1-4-22(5-2)12-6-7-14(3)21-17-10-11-20-18-13-15(19)8-9-16(17)18/h8-11,13-14H,4-7,12H2,1-3H3,(H,20,21)","GDCDHNUYXXZRKA-UHFFFAOYSA-N","?, ?","30","potentiometric","a2/apparent","?, ?","basic",10.15
"17642","N(C(C)C)CCN","CC(C)NCCN","InChI=1S/C5H14N2/c1-5(2)7-4-3-6/h5,7H,3-4,6H2,1-2H3","KDRUIMNNZBMLJR-UHFFFAOYSA-N","?, ?","25","potentiometric","a2/apparent","?, ?","basic",10.62
"12875","N(C1(CCNCC1))(C)C","CN(C)C1CCNCC1","InChI=1S/C7H16N2/c1-9(2)7-3-5-8-6-4-7/h7-8H,3-6H2,1-2H3","YFJAIURZMRJPDB-UHFFFAOYSA-N","?, ?","22","potentiometric","a1/apparent","?, ?","basic",10.66
"10768","SCCNCCC1(=CC=CC=C1)","SCCNCCC1C=CC=CC=1","InChI=1S/C10H15NS/c12-9-8-11-7-6-10-4-2-1-3-5-10/h1-5,11-12H,6-9H2","SWQCRWGJYVDLAO-UHFFFAOYSA-N","?, ?","17","potentiometric","b/apparent","?, NH3(1+)","basic",10.28
"14750","ClC3(=CC2(=NC=1(C(=CC(OC)=CC=1)C(=C2C=C3)NC(CCCCCCCN(CC)CC)C)))","COC1C=C2C(NC(C)CCCCCCCN(CC)CC)=C3C=CC(Cl)=CC3=NC2=CC=1","InChI=1S/C27H38ClN3O/c1-5-31(6-2)17-11-9-7-8-10-12-20(3)29-27-23-15-13-21(28)18-26(23)30-25-16-14-22(32-4)19-24(25)27/h13-16,18-20H,5-12,17H2,1-4H3,(H,29,30)","ZHVXSDRVLNSHEQ-UHFFFAOYSA-N","?, ?","30","potentiometric","a3/apparent","?, ?","basic",10.4
"11813","N1(CCNCCCNCC1)","C1CCNCCNCCN1","InChI=1S/C7H17N3/c1-2-8-4-6-10-7-5-9-3-1/h8-10H,1-7H2","ITIURFCAPKNNCK-UHFFFAOYSA-N","?, ?","24.9","spectrophotometric","a1/apparent","NH+, NH+","basic",11.69
"10409","OCCNCCCN","NCCCNCCO","InChI=1S/C5H14N2O/c6-2-1-3-7-4-5-8/h7-8H,1-6H2","GHKSKVKCKMGRDU-UHFFFAOYSA-N","?, ?","22","potentiometric","a1/apparent","?, ?","basic",10.28
"12290","O(CCN(CC)CC)CCN(CC)C","CN(CCOCCN(CC)CC)CC","InChI=1S/C11H26N2O/c1-5-12(4)8-10-14-11-9-13(6-2)7-3/h5-11H2,1-4H3","ZENJPYHJYQGXPB-UHFFFAOYSA-N","?, ?",,"potentiometric","a2/apparent","?, ?","basic",10.12
"13199","O(CCN(CC)CC)CCN(C)C","CN(C)CCOCCN(CC)CC","InChI=1S/C10H24N2O/c1-5-12(6-2)8-10-13-9-7-11(3)4/h5-10H2,1-4H3","SKONQUYDXIBTRG-UHFFFAOYSA-N","?, ?",,"potentiometric","a2/apparent","?, ?","basic",10.2
"16843","ClC2(=CC1(=NC(=CC(=C1C=C2)NC(CCCN(CC)CC)C)C))","CC1=CC(NC(C)CCCN(CC)CC)=C2C=CC(Cl)=CC2=N1","InChI=1S/C19H28ClN3/c1-5-23(6-2)11-7-8-14(3)21-18-12-15(4)22-19-13-16(20)9-10-17(18)19/h9-10,12-14H,5-8,11H2,1-4H3,(H,21,22)","GYFRJEFMZQFVLO-UHFFFAOYSA-N","?, ?","30","potentiometric","a1/apparent","?, ?","basic",10.18
"14597","O(CCN(CC)CC)CCN(CC)CC","CCN(CCOCCN(CC)CC)CC","InChI=1S/C12H28N2O/c1-5-13(6-2)9-11-15-12-10-14(7-3)8-4/h5-12H2,1-4H3","MELCWEWUZODSIS-UHFFFAOYSA-N","?, ?",,"potentiometric","a2/apparent","?, ?","basic",10.11
"17783","N1(CCC(N)CC1)","NC1CCNCC1","InChI=1S/C5H12N2/c6-5-1-3-7-4-2-5/h5,7H,1-4,6H2","BCIIMDOZSUCSEN-UHFFFAOYSA-N","?, ?","22","potentiometric","a1/apparent","?, ?","basic",10.63
"12914","[S-]C1(=NC([S-])=CC(=N1)C)","CC1=CC(S)=NC(S)=N1","InChI=1S/C5H6N2S2/c1-3-2-4(8)7-5(9)6-3/h2H,1H3,(H2,6,7,8,9)","CQOAJLIZQSKDFC-UHFFFAOYSA-N","?, ?","20","spectrophotometric","a2/apparent","?, ?","basic",12.02
"12703","N(CCCN)CCCN","NCCCNCCCN","InChI=1S/C6H17N3/c7-3-1-5-9-6-2-4-8/h9H,1-8H2","OTBHHUPVCYLGQO-UHFFFAOYSA-N","?, ?, ?","30","mean from 2","a3/apparent","?, ?, ?","basic",10.72
"12216","OC1(=C(C=CC=C1C)CN(CC)CC)","CC1=CC=CC(CN(CC)CC)=C1O","InChI=1S/C12H19NO/c1-4-13(5-2)9-11-8-6-7-10(3)12(11)14/h6-8,14H,4-5,9H2,1-3H3","LDIGJJQBTZCIIT-UHFFFAOYSA-N","?, ?","25","mean from 3","a1/apparent","?, ?","basic",10.91
"17515","NCCCN","NCCCN","InChI=1S/C3H10N2/c4-2-1-3-5/h1-5H2","XFNJVJPLKCPIBV-UHFFFAOYSA-N","?, ?","23","mean from 7","b1/apparent","?, ?","basic",10.55
"17385","N(CCCN)C","CNCCCN","InChI=1S/C4H12N2/c1-6-4-2-3-5/h6H,2-5H2,1H3","QHJABUZHRJTCAR-UHFFFAOYSA-N","?, ?","22","potentiometric","a1/apparent","?, ?","basic",10.67
"17649","N(CCCNC)C","CNCCCNC","InChI=1S/C5H14N2/c1-6-4-3-5-7-2/h6-7H,3-5H2,1-2H3","UQUPIHHYKUEXQD-UHFFFAOYSA-N","?, ?","22","potentiometric","a1/apparent","?, ?","basic",10.7
"10180","[S-]C1(=NC([O-])=CC=N1)","OC1C=CN=C(S)N=1","InChI=1S/C4H4N2OS/c7-3-1-2-5-4(8)6-3/h1-2H,(H2,5,6,7,8)","ZEMGGZBWXRYJHK-UHFFFAOYSA-N","?, ?",,"spectrophotometric","a2/apparent","?, ?","basic",12.7
"13999","[O-]C1(=NC(=NC2(=C1[N-]C=N2))N)","NC1=NC2N=CNC=2C(O)=N1","InChI=1S/C5H5N5O/c6-5-9-3-2(4(11)10-5)7-1-8-3/h1H,(H4,6,7,8,9,10,11)","UYTPUPDQBNUYGX-UHFFFAOYSA-N","?, ?","25","potentiometric","a3/apparent","?, ?","basic",12.3