"Molecule name","OriginalSmiles","Canonical_QSARr","InChI_Code_QSARr","InChI Key_QSARr","Salt_Solvent (Concatenate)","temp","method","type","group","basicOrAcidic","pKa"
"10148","OC1(=N[NH+]=C([O-])C=C1)","OC1=CC=C(O)N=N1","InChI=1S/C4H4N2O2/c7-3-1-2-4(8)6-5-3/h1-2H,(H,5,7)(H,6,8)","BGRDGMRNKXEXQD-UHFFFAOYSA-N","?, ?","22","mean from 3","a1/apparent","?, ?","acidic",-2.2
"14667","O=C([O-])C1([NH2+]CC(C1CC(=O)O)C(C)C)","CC(C)C1CN=C(C1C=C(O)O)C(O)O","InChI=1S/C10H17NO4/c1-5(2)7-4-11-9(10(14)15)6(7)3-8(12)13/h3,5-7,10,12-15H,4H2,1-2H3","BQBLNUADMYTMEZ-UHFFFAOYSA-N","?, ?",,,"a2/apparent","?, ?","acidic",2.12
"11173","OC=1(C=2(C([NH+]=C(C=1)[O-])=CC=CC=2))","OC1C=C(O)C2=CC=CC=C2N=1","InChI=1S/C9H7NO2/c11-8-5-9(12)10-7-4-2-1-3-6(7)8/h1-5H,(H2,10,11,12)","HDHQZCHIXUUSMK-UHFFFAOYSA-N","?, ?","20","spectrophotometric","a2/apparent","?, ?","acidic",0.76
"14715","S(=O)(=O)(NP(=O)(OC)O)C1(=CC=CC=C1)","COP(O)(=O)NS(=O)(=O)C1C=CC=CC=1","InChI=1S/C7H10NO5PS/c1-13-14(9,10)8-15(11,12)7-5-3-2-4-6-7/h2-6H,1H3,(H2,8,9,10)","DKZNBFRRIICLKN-UHFFFAOYSA-N","?, ?","25",,"a1/apparent","?, ?","acidic",1.05
"12988","O=[N+]([O-])NC1(=NN=NN1)","[O-][N+](=O)NC1NN=NN=1","InChI=1S/CH2N6O2/c8-7(9)4-1-2-5-6-3-1/h(H2,2,3,4,5,6)","HURPOIVZCDCEEE-UHFFFAOYSA-N","?, ?","25","mean from 2","a1/apparent","N-H, N-H","acidic",1.77
"15768","P(=O)(O)([O-])COCCN2(C1(=NC=NC(=C1N=C2)N))","NC1N=CN=C2C=1N=CN2CCOCP(O)(O)=O","InChI=1S/C8H12N5O4P/c9-7-6-8(11-3-10-7)13(4-12-6)1-2-17-5-18(14,15)16/h3-4H,1-2,5H2,(H2,9,10,11)(H2,14,15,16)","SUPKOOSCJHTBAH-UHFFFAOYSA-N","?, ?","25","mean from 2","a1/apparent","O-H, P(O)O-H","acidic",1.22
"15277","O=[N+]([O-])C1(=CC(=C(O)C=C1)C[NH+](CC(=O)[O-])CC(=O)[O-])","[O-][N+](=O)C1C=CC(O)=C(CN(C=C(O)O)C=C(O)O)C=1","InChI=1S/C11H12N2O7/c14-9-2-1-8(13(19)20)3-7(9)4-12(5-10(15)16)6-11(17)18/h1-3,5-6,14-18H,4H2","ZMKSQNUFCOAHKG-UHFFFAOYSA-N","?, ?","20","potentiometric","a2/apparent","?, ?","acidic",2.4
"14152","O=C(O)C1(C(=O)O)(CCCC1)","OC(=O)C1(CCCC1)C(O)=O","InChI=1S/C7H10O4/c8-5(9)7(6(10)11)3-1-2-4-7/h1-4H2,(H,8,9)(H,10,11)","YZFOGXKZTWZVFN-UHFFFAOYSA-N","?, ?","25","mean from 2","1/apparent","?, ?","acidic",3.24
"15907","S(=O)(=O)(NCC[NH+](CC(=O)O)CC(=O)O)C1(=CC=C(C)C=C1)","CC1C=CC(=CC=1)S(=O)(=O)NCCN(C=C(O)O)C=C(O)O","InChI=1S/C13H18N2O6S/c1-10-2-4-11(5-3-10)22(20,21)14-6-7-15(8-12(16)17)9-13(18)19/h2-5,8-9,14,16-19H,6-7H2,1H3","MIIZYKHGQOSVHC-UHFFFAOYSA-N","?, ?","25","potentiometric","a1/apparent","?, ?","acidic",2.15
"17876","[S-]C1(=CC=NC=C1)","SC1C=CN=CC=1","InChI=1S/C5H5NS/c7-5-1-3-6-4-2-5/h1-4H,(H,6,7)","FHTDDANQIMVWKZ-UHFFFAOYSA-N","?, ?","20","potentiometric","a2/apparent","neutr., proton.","acidic",1.43
"14289","O=C([O-])C([NH3+])CC1(=NNC=N1)","N=C(CC1N=CNN=1)C(O)O","InChI=1S/C5H8N4O2/c6-3(5(10)11)1-4-7-2-8-9-4/h2,5-6,10-11H,1H2,(H,7,8,9)","YOQUEJWUXBAZNR-UHFFFAOYSA-N","?, ?",,,"a2/apparent","?, ?","acidic",2.1
"11971","[S-]C2(=NC=1(NC=NC=1C=N2))","SC1N=C2NC=NC2=CN=1","InChI=1S/C5H4N4S/c10-5-6-1-3-4(9-5)8-2-7-3/h1-2H,(H2,6,7,8,9,10)","HDBQZGJWHMCXIL-UHFFFAOYSA-N","?, ?","20","potentiometric","a3/apparent","?, ?","acidic",0.5
"14706","O=C(NCC(=O)O)C1(=C(O)C(O)=CC=C1)","OC1C=CC=C(C(=O)N=CC(O)O)C=1O","InChI=1S/C9H9NO5/c11-6-3-1-2-5(8(6)14)9(15)10-4-7(12)13/h1-4,7,11-14H","AQFIYBANBLFGQQ-UHFFFAOYSA-N","?, ?","25","potentiometric","a1/apparent","?, ?","acidic",3.5
"11869","O=C(O)C(N)CCC(=O)N","N=C(O)CCC(=N)C(O)O","InChI=1S/C5H10N2O3/c6-3(5(9)10)1-2-4(7)8/h5-6,9-10H,1-2H2,(H2,7,8)","GXHSPKFVERYNCR-UHFFFAOYSA-N","?, ?","24","mean from 5","a1/apparent","COOH, ?","acidic",2.2
"15391","P(=O)(O)(O)C([NH2+]CC1(=C[NH+]=CC=C1))C2(=C(O)C=CC=C2)","OC1=CC=CC=C1C(NCC1C=CC=NC=1)P(O)(O)=O","InChI=1S/C13H15N2O4P/c16-12-6-2-1-5-11(12)13(20(17,18)19)15-9-10-4-3-7-14-8-10/h1-8,13,15-16H,9H2,(H2,17,18,19)","GHRFZZCEUPGLIT-UHFFFAOYSA-N","?, ?, ?","20","potentiometric","b1/apparent","?, ?, ?","acidic",2.28
"12243","S(=O)(=O)(N)C1(=CC=C(P(=O)(O)O)C=C1)","NS(=O)(=O)C1C=CC(=CC=1)P(O)(O)=O","InChI=1S/C6H8NO5PS/c7-14(11,12)6-3-1-5(2-4-6)13(8,9)10/h1-4H,(H2,7,11,12)(H2,8,9,10)","KYCZQSQYGCJAPN-UHFFFAOYSA-N","?, ?, ?","25","potentiometric","a/apparent","&1%, &3%, &2%","acidic",1.42
"12372","FC(F)(F)C1(=NC([O-])=C2(NC=NC2(=N1)))","OC1N=C(N=C2N=CNC2=1)C(F)(F)F","InChI=1S/C6H3F3N4O/c7-6(8,9)5-12-3-2(4(14)13-5)10-1-11-3/h1H,(H2,10,11,12,13,14)","SLPBZJPJRTYAPU-UHFFFAOYSA-N","?, ?","20","spectrophotometric","a3/apparent","?, ?","acidic",1.1
"16264","O=C(O)C([NH2+]CC1(=C(O)C=CC(=C1)OC))CO","COC1C=C(CN=C(CO)C(O)O)C(O)=CC=1","InChI=1S/C11H15NO5/c1-17-8-2-3-10(14)7(4-8)5-12-9(6-13)11(15)16/h2-4,11,13-16H,5-6H2,1H3","IFTAZLOARCLWLC-UHFFFAOYSA-N","?, ?","25","potentiometric","a1/apparent","COO-H, =NH-H(1+)","acidic",2.1
"11928","SCC(NC(=O)C)C(=O)O","C=C(O)N=C(CS)C(O)O","InChI=1S/C5H9NO3S/c1-3(7)6-4(2-10)5(8)9/h5,7-10H,1-2H2","LBVSBYMOEXFTBT-UHFFFAOYSA-N","?, ?","25","potentiometric","a1/apparent","-COOH, -SH","acidic",3.08
"12395","[S-]C2(=C(C1(=NC(C)=C(N1)C))C=CC=C2)","CC1N=C(NC=1C)C1=CC=CC=C1S","InChI=1S/C11H12N2S/c1-7-8(2)13-11(12-7)9-5-3-4-6-10(9)14/h3-6,14H,1-2H3,(H,12,13)","MJPMRORDSDCCCN-UHFFFAOYSA-N","?, ?","25","potentiometric","a2/apparent","?, -SH","acidic",3.9
"10941","O=C(O)C2(C1(=C(C=CC=C1)C=C2))","OC(O)=C1C=CC2C=CC=CC=21","InChI=1S/C10H8O2/c11-10(12)9-6-5-7-3-1-2-4-8(7)9/h1-6,11-12H","WRYBSOXYZDPXLU-UHFFFAOYSA-N","?, ?","25","spectrophotometric","a1/apparent","-CO2H, -CO2H","acidic",3.92
"12616","O=C(O)C(N)CC(=O)N","NC(=O)CC(=N)C(O)O","InChI=1S/C4H8N2O3/c5-2(4(8)9)1-3(6)7/h4-5,8-9H,1H2,(H2,6,7)","YKFYHZWBEQGAJQ-UHFFFAOYSA-N","?, ?, ?, ?, ?","24.9","potentiometric","a2/apparent","-COOH, -NH3(+), NH3+, ?, ?","acidic",2.02
"14892","O=C(O)C=CC(=O)NOCC1(=CC=CC=C1)","OC(=O)C=CC(=O)NOCC1C=CC=CC=1","InChI=1S/C11H11NO4/c13-10(6-7-11(14)15)12-16-8-9-4-2-1-3-5-9/h1-7H,8H2,(H,12,13)(H,14,15)","JFUGHCIHXPQYTE-UHFFFAOYSA-N","?, ?",,,"a1/apparent","?, ?","acidic",3.8
"16476","ClC1(=C(S(=O)(=O)N)C=C(C(=O)O)C(=C1)NCC=2(OC=CC=2))","NS(=O)(=O)C1C=C(C(O)=O)C(=CC=1Cl)NCC1=CC=CO1","InChI=1S/C12H11ClN2O5S/c13-9-5-10(15-6-7-2-1-3-20-7)8(12(16)17)4-11(9)21(14,18)19/h1-5,15H,6H2,(H,16,17)(H2,14,18,19)","ZZUFCTLCJUWOSV-UHFFFAOYSA-N","?, ?","25","mean from 2","a1/apparent","?, ?","acidic",3.62
"16607","P(=O)(O)C([NH2+]CC1(=CC=[NH+]C=C1))C2(=C(O)C=CC=C2)","OC1=CC=CC=C1C(NCC1C=CN=CC=1)P(O)=O","InChI=1S/C13H15N2O3P/c16-12-4-2-1-3-11(12)13(19(17)18)15-9-10-5-7-14-8-6-10/h1-8,13,15-16,19H,9H2,(H,17,18)","QVKNLNQYIXTIHZ-UHFFFAOYSA-N","?, ?","20","mean from 2","b1/apparent","?, ?","acidic",2.35
"14844","[Br]C1(=CC(=C(O)C=C1)C(C=CC(=O)O)(C)C)","CC(C)(C=CC(O)=O)C1C=C(Br)C=CC=1O","InChI=1S/C12H13BrO3/c1-12(2,6-5-11(15)16)9-7-8(13)3-4-10(9)14/h3-7,14H,1-2H3,(H,15,16)","FGXOKQYTLLMAQV-UHFFFAOYSA-N","?, ?","39","spectrophotometric","a1/apparent","COOH, OH","acidic",4.46
"14893","O=C(O)CCC(=O)NOCC1(=CC=CC=C1)","OC(O)=CCC(=O)NOCC1C=CC=CC=1","InChI=1S/C11H13NO4/c13-10(6-7-11(14)15)12-16-8-9-4-2-1-3-5-9/h1-5,7,14-15H,6,8H2,(H,12,13)","DMRVIRZZZBINBS-UHFFFAOYSA-N","?, ?",,,"a1/apparent","?, ?","acidic",4.6
"13760","S=C1(NC(=S)C=2(NC=NC=2(N1)))","S=C1NC2N=CNC=2C(=S)N1","InChI=1S/C5H4N4S2/c10-4-2-3(7-1-6-2)8-5(11)9-4/h1H,(H3,6,7,8,9,10,11)","VQPMXSMUUILNFZ-UHFFFAOYSA-N","?, ?","20","potentiometric","a1/apparent","?, ?","acidic",5.02
"17107","O=C(C1(=CC=CC=C1))C[N+]2(=CC=CC=C2)","OC(=C[N+]1C=CC=CC=1)C1C=CC=CC=1","InChI=1S/C13H11NO/c15-13(12-7-3-1-4-8-12)11-14-9-5-2-6-10-14/h1-11H/p+1","IWHOTBXJHCGHRY-UHFFFAOYSA-O","?, ?","25","mean from 2","a1/apparent","?, ?","acidic",4.8
"13803","S=C1(NC(=O)C=2(NC=NC=2(N1)))","O=C1NC(=S)NC2N=CNC=21","InChI=1S/C5H4N4OS/c10-4-2-3(7-1-6-2)8-5(11)9-4/h1H,(H3,6,7,8,9,10,11)","XNHFAGRBSMMFKL-UHFFFAOYSA-N","?, ?","23","potentiometric","a1/apparent","?, ?","acidic",5.88
"16503","S(=O)(=O)(NC1(=NC(OC)=CC(=N1)OC))C2(=CC=C(O)C=C2)","COC1=CC(=NC(NS(=O)(=O)C2C=CC(O)=CC=2)=N1)OC","InChI=1S/C12H13N3O5S/c1-19-10-7-11(20-2)14-12(13-10)15-21(17,18)9-5-3-8(16)4-6-9/h3-7,16H,1-2H3,(H,13,14,15)","DNLIOTBQSZXSPB-UHFFFAOYSA-N","?, ?",,"spectrophotometric","a1/apparent","?, ?","acidic",7.29
"10583","O=C(O)C=CC1(=C(O)C=CC=C1)","OC1C=CC=CC=1C=CC(O)=O","InChI=1S/C9H8O3/c10-8-4-2-1-3-7(8)5-6-9(11)12/h1-6,10H,(H,11,12)","PMOWTIHVNWZYFI-UHFFFAOYSA-N","?, ?, ?","25","mean from 2","1/thermodynamic","?, ?, ?","acidic",4.56
"16667","S(=O)(=O)(NC1(=NC(=CC(=N1)C)C))C2(=CC=C(O)C=C2)","CC1C=C(C)N=C(NS(=O)(=O)C2C=CC(O)=CC=2)N=1","InChI=1S/C12H13N3O3S/c1-8-7-9(2)14-12(13-8)15-19(17,18)11-5-3-10(16)4-6-11/h3-7,16H,1-2H3,(H,13,14,15)","HUFOVXFUJPUAQR-UHFFFAOYSA-N","?, ?",,"spectrophotometric","a1/apparent","?, ?","acidic",7.52
"17634","O=C(O)C=C(O)C","CC(O)=CC(O)=O","InChI=1S/C4H6O3/c1-3(5)2-4(6)7/h2,5H,1H3,(H,6,7)","NVPCGXUWUBHZBD-UHFFFAOYSA-N","?, ?","25",,"a1/apparent","?, ?","acidic",4.05
"14428","O=[N+]([O-])C1(=C(O)C=CC(=C1)O)","[O-][N+](=O)C1C=C(O)C=CC=1O","InChI=1S/C6H5NO4/c8-4-1-2-6(9)5(3-4)7(10)11/h1-3,8-9H","VIIYYMZOGKODQG-UHFFFAOYSA-N","?, ?","25","mean from 2","a1/apparent","?, ?","acidic",7.42
"15142","O=C(C1(=CC=CC=C1))CC2(=C[N+](=CC=C2)C)","C[N+]1C=C(C=C(O)C2C=CC=CC=2)C=CC=1","InChI=1S/C14H13NO/c1-15-9-5-6-12(11-15)10-14(16)13-7-3-2-4-8-13/h2-11H,1H3/p+1","CJUULOLIHTUUFA-UHFFFAOYSA-O","?, ?","25","spectrophotometric","a1/apparent","?, ?","acidic",6.75
"15421","O=[N+]([O-])C1(=CC(=C(O)C=C1)CC2(=CC(=C(O)C(=C2)C)C))","CC1=CC(CC2C=C(C=CC=2O)[N+]([O-])=O)=CC(C)=C1O","InChI=1S/C15H15NO4/c1-9-5-11(6-10(2)15(9)18)7-12-8-13(16(19)20)3-4-14(12)17/h3-6,8,17-18H,7H2,1-2H3","BBKDSGBRXLJERA-UHFFFAOYSA-N","?, ?","25","spectrophotometric","a1/apparent","?, ?","acidic",7.12
"14429","O=[N+]([O-])C1(=C(O)C(O)=CC=C1)","[O-][N+](=O)C1C=CC=C(O)C=1O","InChI=1S/C6H5NO4/c8-5-3-1-2-4(6(5)9)7(10)11/h1-3,8-9H","YHKWFDPEASWKFQ-UHFFFAOYSA-N","?, ?","30","mean from 4","a1/apparent","?, ?","acidic",6.64
"15988","OC3(=C1(C(C=2(C(O)=CC=CC1=2))=CC=C3))","OC1C=CC=C2C=1C1C=CC=C(O)C=12","InChI=1S/C12H8O2/c13-9-5-1-3-7-11(9)8-4-2-6-10(14)12(7)8/h1-6,13-14H","VOEFKGGHEJTXRU-UHFFFAOYSA-N","?, ?","26","spectrophotometric","a1/apparent","?, ?","acidic",8.35
"15423","O=[N+]([O-])C1(=C(O)C(=CC(=C1)C)CC2(=C(O)C=CC(=C2)C))","CC1=CC(=C(O)C(CC2C=C(C)C=CC=2O)=C1)[N+]([O-])=O","InChI=1S/C15H15NO4/c1-9-3-4-14(17)11(5-9)8-12-6-10(2)7-13(15(12)18)16(19)20/h3-7,17-18H,8H2,1-2H3","OCRQBZXIUUNRHQ-UHFFFAOYSA-N","?, ?","25","spectrophotometric","a1/apparent","?, ?","acidic",6.87
"15058","S(=O)(=O)(N)C=2(SC(NC1(=CC=CC=C1))=NN=2)","NS(=O)(=O)C1=NN=C(NC2C=CC=CC=2)S1","InChI=1S/C8H8N4O2S2/c9-16(13,14)8-12-11-7(15-8)10-6-4-2-1-3-5-6/h1-5H,(H,10,11)(H2,9,13,14)","FRUXEGXTPKKYCH-UHFFFAOYSA-N","?, ?",,"spectrophotometric","a1/apparent","?, ?","acidic",7.7
"16490","O=[N+]([O-])C1(=C(O)C(=CC(=C1)C)CC2(=CC(=C(O)C(=C2)C)C))","CC1C=C(CC2=CC(C)=CC(=C2O)[N+]([O-])=O)C=C(C)C=1O","InChI=1S/C16H17NO4/c1-9-4-13(16(19)14(5-9)17(20)21)8-12-6-10(2)15(18)11(3)7-12/h4-7,18-19H,8H2,1-3H3","CBGRLUKJDPBHGE-UHFFFAOYSA-N","?, ?","25","spectrophotometric","a1/apparent","?, ?","acidic",7.98
"12790","[Br]C1(=C(O)C=CC(=C1)O)","OC1=CC(Br)=C(O)C=C1","InChI=1S/C6H5BrO2/c7-5-3-4(8)1-2-6(5)9/h1-3,8-9H","REFDOIWRJDGBHY-UHFFFAOYSA-N","?, ?","22","spectrophotometric","a1/apparent","?, ?","acidic",8.67
"15782","O=C(NN=CC1(=C(O)C=CC=C1))C2(=CC=NC=C2)","OC1C=CC=CC=1CN=NC(=O)C1C=CN=CC=1","InChI=1S/C13H11N3O2/c17-12-4-2-1-3-11(12)9-15-16-13(18)10-5-7-14-8-6-10/h1-8,17H,9H2","IJGOHEJBDGHHQX-UHFFFAOYSA-N","?, ?","25","spectrophotometric","a1/apparent","H-OC6H4, C(O)N-H","acidic",8.31
"10933","ON=C1(C(=NO)CCCC1=NO)","O=NC1C(CCCC1N=O)N=O","InChI=1S/C6H9N3O3/c10-7-4-2-1-3-5(8-11)6(4)9-12/h4-6H,1-3H2","FCDBWNRRBVYHBZ-UHFFFAOYSA-N","?, ?, ?, ?","20","mean from 2","a1/apparent","=N-OH, =N-OH, =N-OH, =N-OH","acidic",8.12
"12833","OC1(=C(O)C=CC=C1O)","OC1C=CC=C(O)C=1O","InChI=1S/C6H6O3/c7-4-2-1-3-5(8)6(4)9/h1-3,7-9H","WQGWDDDVZFFDIG-UHFFFAOYSA-N","?, ?","29","mean from 2","a2/apparent","?, ?","acidic",8.97
"14884","O=C1(NC(=O)C(C(CCC)C)(CC)C(N1)=O)","CCC1(C(C)CCC)C(=O)NC(=O)NC1=O","InChI=1S/C11H18N2O3/c1-4-6-7(3)11(5-2)8(14)12-10(16)13-9(11)15/h7H,4-6H2,1-3H3,(H2,12,13,14,15,16)","WEXRUCMBJFQVBZ-UHFFFAOYSA-N","?, ?","25","mean from 3","a1/apparent","?, ?","acidic",8.08
"10014","OC1(=CC(O)=CC=C1)","OC1=CC(O)=CC=C1","InChI=1S/C6H6O2/c7-5-2-1-3-6(8)4-5/h1-4,7-8H","GHMLBKRAJCXXBS-UHFFFAOYSA-N","?, ?","23","mean from 6","b2/apparent","?, ?","acidic",9.56
"11308","O=C(OC)CC(=NO)C(=NO)C","CC(N=O)C(C=C(O)OC)N=O","InChI=1S/C6H10N2O4/c1-4(7-10)5(8-11)3-6(9)12-2/h3-5,9H,1-2H3","ZNSYLPBALQASRP-UHFFFAOYSA-N","?, ?","25","potentiometric","a1/apparent","?, ?","acidic",9.77
"12544","O=C(OC)NC1(=NC=NC2(=C1NC=N2))","COC(=O)NC1=NC=NC2N=CNC=21","InChI=1S/C7H7N5O2/c1-14-7(13)12-6-4-5(9-2-8-4)10-3-11-6/h2-3H,1H3,(H2,8,9,10,11,12,13)","ZIXLQZZOPCEFIK-UHFFFAOYSA-N","?, ?",,"spectrophotometric","a2/apparent","?, ?","acidic",9.68
"14001","[O-][N+]2(=C(N)C=1(NC=NC=1N=C2))","NC1C2NC=NC=2N=C[N+]=1[O-]","InChI=1S/C5H5N5O/c6-4-3-5(8-1-7-3)9-2-10(4)11/h1-2H,6H2,(H,7,8,9)","TXTRWVWGYHUIAI-UHFFFAOYSA-N","?, ?",,"spectrophotometric","a2/apparent","?, ?","acidic",9.0
"12768","OC1(=C(O)C=CC(=C1)C)","CC1=CC(O)=C(O)C=C1","InChI=1S/C7H8O2/c1-5-2-3-6(8)7(9)4-5/h2-4,8-9H,1H3","ZBCATMYQYDCTIZ-UHFFFAOYSA-N","?, ?","25","mean from 3","a1/apparent","?, ?","acidic",9.62
"14137","ON=C(C(=NO)C)CN(C)C","CC(N=O)C(CN(C)C)N=O","InChI=1S/C6H13N3O2/c1-5(7-10)6(8-11)4-9(2)3/h5-6H,4H2,1-3H3","BUBORVWZFXYFRL-UHFFFAOYSA-N","?, ?","25","potentiometric","a1/apparent","?, ?","acidic",10.6
"10531","OC1(=C(C(=C(O)C(=C1C)C)C)C)","CC1C(O)=C(C)C(C)=C(O)C=1C","InChI=1S/C10H14O2/c1-5-6(2)10(12)8(4)7(3)9(5)11/h11-12H,1-4H3","SUNVJLYYDZCIIK-UHFFFAOYSA-N","?, ?","24","mean from 2","a1/apparent","?, ?","acidic",11.3