"Molecule name","OriginalSmiles","Canonical_QSARr","InChI_Code_QSARr","InChI Key_QSARr","Salt_Solvent (Concatenate)","temp","method","type","group","basicOrAcidic","pKa"
"17289","N1(CCNCC1)","C1CNCCN1","InChI=1S/C4H10N2/c1-2-6-4-3-5-1/h5-6H,1-4H2","GLUUGHFHXGJENI-UHFFFAOYSA-N","?, ?","24","mean from 10","a2/apparent","NH2%+&, NH2%+&","basic",9.93
"17756","N(CCN)CCN","NCCNCCN","InChI=1S/C4H13N3/c5-1-3-7-4-2-6/h7H,1-6H2","RPNUMPOLZDHAAY-UHFFFAOYSA-N","?, ?, ?","24","mean from 6","a2/apparent","?, ammonium, ?","basic",9.89
"14302","N1(=C(C=CC=C1)CCCCN)","NCCCCC1C=CC=CN=1","InChI=1S/C9H14N2/c10-7-3-1-5-9-6-2-4-8-11-9/h2,4,6,8H,1,3,5,7,10H2","STIOUOHCWDHSJY-UHFFFAOYSA-N","?, ?","25","potentiometric","a1/apparent","?, ?","basic",10.3
"10639","N1(=CC(=CC=C1)CCCCCN)","NCCCCCC1C=NC=CC=1","InChI=1S/C10H16N2/c11-7-3-1-2-5-10-6-4-8-12-9-10/h4,6,8-9H,1-3,5,7,11H2","OEIIEOGCBVXHSU-UHFFFAOYSA-N","?, ?","25","potentiometric","a1/apparent","?, ?","basic",10.34
"10640","N1(=C(C=CC=C1)CCCCCN)","NCCCCCC1C=CC=CN=1","InChI=1S/C10H16N2/c11-8-4-1-2-6-10-7-3-5-9-12-10/h3,5,7,9H,1-2,4,6,8,11H2","DEDKVPFRCKCITM-UHFFFAOYSA-N","?, ?","25","potentiometric","a1/apparent","?, ?","basic",10.38
"16838","ClC2(=CC=C(NC1(=NC(=NC(=C1)C)NCCN(CC)CC))C=C2)","CC1=CC(NC2C=CC(Cl)=CC=2)=NC(NCCN(CC)CC)=N1","InChI=1S/C17H24ClN5/c1-4-23(5-2)11-10-19-17-20-13(3)12-16(22-17)21-15-8-6-14(18)7-9-15/h6-9,12H,4-5,10-11H2,1-3H3,(H2,19,20,21,22)","JESYOSDAJQQJQZ-UHFFFAOYSA-N","?, ?","25","potentiometric","a2/apparent","?, ?","basic",9.6
"14855","O=C([O-])C(NC(=O)CC[NH3+])CC=1(N=CNC=1)","NCC/C(/O)=N\C(CC1=CNC=N1)=C(O)O","InChI=1S/C9H14N4O3/c10-2-1-8(14)13-7(9(15)16)3-6-4-11-5-12-6/h4-5,15-16H,1-3,10H2,(H,11,12)(H,13,14)","WTLSFJRENIJTFH-UHFFFAOYSA-N","?, ?, ?, ?, ?, ?","25",,"a2/apparent","?, ?, ?, ?, ?, ?","basic",9.61
"11030","NC1(C(N)CC2(CCCCC2(C1)))","NC1CC2CCCCC2CC1N","InChI=1S/C10H20N2/c11-9-5-7-3-1-2-4-8(7)6-10(9)12/h7-10H,1-6,11-12H2","LEHVFMWPPKBCDK-UHFFFAOYSA-N","?, ?, ?, ?, ?, ?","25","potentiometric","a2/apparent","?, ?, ?, ?, ?, ?","basic",10.08
"10382","NC(C(N)(C)C)(C)C","CC(C)(N)C(C)(C)N","InChI=1S/C6H16N2/c1-5(2,7)6(3,4)8/h7-8H2,1-4H3","CGCVLTOGUMLHNP-UHFFFAOYSA-N","?, ?","25","potentiometric","a2/apparent","?, ?","basic",10.13
"15818","ClC3(=CC2(=NC=1(C(=CC(OC)=CC=1)C(=C2C=C3)NC(CN(CC)CC)C)))","COC1C=C2C(NC(C)CN(CC)CC)=C3C=CC(Cl)=CC3=NC2=CC=1","InChI=1S/C21H26ClN3O/c1-5-25(6-2)13-14(3)23-21-17-9-7-15(22)11-20(17)24-19-10-8-16(26-4)12-18(19)21/h7-12,14H,5-6,13H2,1-4H3,(H,23,24)","OGLOZAOTVVGSCI-UHFFFAOYSA-N","?, ?","30","potentiometric","a2/apparent","?, ?","basic",9.65
"15985","S(CC=1(N=CNC=1C))CCNC(=N)NCCCC=2(N=CNC=2)","CC1NC=NC=1CSCCNC(=N)NCCCC1=CNC=N1","InChI=1S/C14H23N7S/c1-11-13(21-10-19-11)8-22-6-5-18-14(15)17-4-2-3-12-7-16-9-20-12/h7,9-10H,2-6,8H2,1H3,(H,16,20)(H,19,21)(H3,15,17,18)","MURRAGMMNAYLNA-UHFFFAOYSA-N","?, ?, ?","25","potentiometric","a1/apparent","NH, NH, NH","basic",11.6
"17518","NC(CN)C","CC(N)CN","InChI=1S/C3H10N2/c1-3(5)2-4/h3H,2,4-5H2,1H3","AOHJOMMDDJHIJH-UHFFFAOYSA-N","?, ?","27","mean from 5","a1/apparent","?, NH3(1+)","basic",9.83
"14922","N1(=C(N=C(C)C=C1NCCN(CC)CC)N)","CC1C=C(NCCN(CC)CC)N=C(N)N=1","InChI=1S/C11H21N5/c1-4-16(5-2)7-6-13-10-8-9(3)14-11(12)15-10/h8H,4-7H2,1-3H3,(H3,12,13,14,15)","LCOFVCJZEGARPK-UHFFFAOYSA-N","?, ?","25","potentiometric","a2/apparent","?, ?","basic",9.55
"11930","N(CCCN)(CCCN)C","CN(CCCN)CCCN","InChI=1S/C7H19N3/c1-10(6-2-4-8)7-3-5-9/h2-9H2,1H3","KMBPCQSCMCEPMU-UHFFFAOYSA-N","?, ?, ?","24","mean from 3","a3/apparent","?, ?, ?","basic",10.39
"12288","OC(CN(CC)CC)CN(CC)CC","CCN(CC(O)CN(CC)CC)CC","InChI=1S/C11H26N2O/c1-5-12(6-2)9-11(14)10-13(7-3)8-4/h11,14H,5-10H2,1-4H3","CDBMNYGKGNXEIG-UHFFFAOYSA-N","?, ?","25","potentiometric","a2/thermodynamic","diprot., diprot.","basic",9.8
"11316","O(CCN(CC)C)CCN(C)C","CN(C)CCOCCN(C)CC","InChI=1S/C9H22N2O/c1-5-11(4)7-9-12-8-6-10(2)3/h5-9H2,1-4H3","TVXYKULMXFNZEP-UHFFFAOYSA-N","?, ?",,"potentiometric","a2/apparent","?, ?","basic",9.65
"10132","[S-]C1(=NC([S-])=CC=N1)","SC1C=CN=C(S)N=1","InChI=1S/C4H4N2S2/c7-3-1-2-5-4(8)6-3/h1-2H,(H2,5,6,7,8)","ZEQIWKHCJWRNTH-UHFFFAOYSA-N","?, ?","20","potentiometric","a2/apparent","?, ?","basic",11.19
"17519","N(CCN)C","CNCCN","InChI=1S/C3H10N2/c1-5-3-2-4/h5H,2-4H2,1H3","KFIGICHILYTCJF-UHFFFAOYSA-N","?, ?","25","mean from 2","a2/apparent","?, ?","basic",10.36
"12150","OCCNC1(CC(NC(C1)(C)C)(C)C)","CC1(C)CC(CC(C)(C)N1)NCCO","InChI=1S/C11H24N2O/c1-10(2)7-9(12-5-6-14)8-11(3,4)13-10/h9,12-14H,5-8H2,1-4H3","OCUZSAAZCGGVEI-UHFFFAOYSA-N","?, ?","22","potentiometric","a1/apparent","?, ?","basic",10.52
"16983","N1(CCCCC1)(CCCN2(CCCCC2))","C(CCN1CCCCC1)N1CCCCC1","InChI=1S/C13H26N2/c1-3-8-14(9-4-1)12-7-13-15-10-5-2-6-11-15/h1-13H2","AMBFNDRKYCJLNH-UHFFFAOYSA-N","?, ?","22","mean from 3","a1/apparent","?, ?","basic",10.08
"10384","N(CCNCC)CC","CCNCCNCC","InChI=1S/C6H16N2/c1-3-7-5-6-8-4-2/h7-8H,3-6H2,1-2H3","CJKRXEBLWJVYJD-UHFFFAOYSA-N","?, ?","25","potentiometric","a2/apparent","?, ?","basic",10.46
"13546","N(C1(CC(NC(C1)(C)C)(C)C))(C)C","CN(C)C1CC(C)(C)NC(C)(C)C1","InChI=1S/C11H24N2/c1-10(2)7-9(13(5)6)8-11(3,4)12-10/h9,12H,7-8H2,1-6H3","LRAJIZNKBMCWJE-UHFFFAOYSA-N","?, ?","22","potentiometric","a1/apparent","?, ?","basic",10.56
"13193","N(CCCN(CC)CC)(CC)CC","CCN(CCCN(CC)CC)CC","InChI=1S/C11H26N2/c1-5-12(6-2)10-9-11-13(7-3)8-4/h5-11H2,1-4H3","RCZLVPFECJNLMZ-UHFFFAOYSA-N","?, ?","25","potentiometric","a/thermodynamic","?, ?","basic",10.18
"16568","ClC3(=CC2(=NC=1(C(=CC(OC)=CC=1)C(=C2C=C3)NCCCCCCN(CC)CC)))","COC1C=C2C(NCCCCCCN(CC)CC)=C3C=CC(Cl)=CC3=NC2=CC=1","InChI=1S/C24H32ClN3O/c1-4-28(5-2)15-9-7-6-8-14-26-24-20-12-10-18(25)16-23(20)27-22-13-11-19(29-3)17-21(22)24/h10-13,16-17H,4-9,14-15H2,1-3H3,(H,26,27)","AKMRCRSBVXSYQI-UHFFFAOYSA-N","?, ?","30","potentiometric","a2/apparent","?, ?","basic",10.35
"11048","N2(C1(CCNCC1))(CCCCC2)","C1CC(CCN1)N1CCCCC1","InChI=1S/C10H20N2/c1-2-8-12(9-3-1)10-4-6-11-7-5-10/h10-11H,1-9H2","QDVBKXJMLILLLB-UHFFFAOYSA-N","?, ?","22","potentiometric","a1/apparent","?, ?","basic",10.73
"10377","N(CC(CNC)C)C","CC(CNC)CNC","InChI=1S/C6H16N2/c1-6(4-7-2)5-8-3/h6-8H,4-5H2,1-3H3","GDJIVWPKHAWKIO-UHFFFAOYSA-N","?, ?","22","potentiometric","a1/apparent","?, ?","basic",10.55
"11934","N(CCCN)CCCCN","NCCCCNCCCN","InChI=1S/C7H19N3/c8-4-1-2-6-10-7-3-5-9/h10H,1-9H2","ATHGHQPFGPMSJY-UHFFFAOYSA-N","?, ?, ?","25","mean from 2","a1/apparent","NH-, NH-, NH-","basic",10.59
"12498","OC1(=C(C=CC=C1)CN2(CCCCC2))","OC1C=CC=CC=1CN1CCCCC1","InChI=1S/C12H17NO/c14-12-7-3-2-6-11(12)10-13-8-4-1-5-9-13/h2-3,6-7,14H,1,4-5,8-10H2","FTKQHXNOTYHHLE-UHFFFAOYSA-N","?, ?","25","mean from 4","a1/apparent","N(1+)-H, ?","basic",11.01
"13543","O=C([O-])C1([NH+]=C(N)NC1C(O)CN)","NC1NC(C(O)CN)C(N=1)=C(O)O","InChI=1S/C6H12N4O3/c7-1-2(11)3-4(5(12)13)10-6(8)9-3/h2-3,11-13H,1,7H2,(H3,8,9,10)","LIORDZDUPBSJKD-UHFFFAOYSA-N","?, ?","17","potentiometric","a2/apparent","?, ?","basic",11.9