"Molecule name","OriginalSmiles","Canonical_QSARr","InChI_Code_QSARr","InChI Key_QSARr","Salt_Solvent (Concatenate)","temp","method","type","group","basicOrAcidic","pKa"
"13150","O=[N+]([O-])NC1(=NNC=N1)","[O-][N+](=O)NC1N=CNN=1","InChI=1S/C2H3N5O2/c8-7(9)6-2-3-1-4-5-2/h1H,(H2,3,4,5,6)","JKMRKVRTECEDPV-UHFFFAOYSA-N","?, ?","24","spectrophotometric","a1/apparent","?, ?","acidic",3.95
"12945","S=C1(NC(=O)CC(N1)=O)","OC1CC(=O)NC(=S)N=1","InChI=1S/C4H4N2O2S/c7-2-1-3(8)6-4(9)5-2/h1H2,(H2,5,6,7,8,9)","RVBUGGBMJDPOST-UHFFFAOYSA-N","?, ?","25","potentiometric","a1/apparent","?, ?","acidic",4.15
"12344","O=C(O)C=1(C(O)=CC2(=CC=CC=C2(C=1)))","OC1=CC2=CC=CC=C2C=C1C(O)=O","InChI=1S/C11H8O3/c12-10-6-8-4-2-1-3-7(8)5-9(10)11(13)14/h1-6,12H,(H,13,14)","ALKYHXVLJMQRLQ-UHFFFAOYSA-N","?, ?","25","conductometric","a/thermodynamic","COOH, OH","acidic",2.71
"16253","O=C(O)CCCC(=O)NOCC1(=CC=CC=C1)","OC(O)=CCC/C(/O)=N\OCC1C=CC=CC=1","InChI=1S/C12H15NO4/c14-11(7-4-8-12(15)16)13-17-9-10-5-2-1-3-6-10/h1-3,5-6,8,15-16H,4,7,9H2,(H,13,14)","PODKQHBAQFAATN-UHFFFAOYSA-N","?, ?",,,"a1/apparent","?, ?","acidic",4.7
"11455","O=C1(C(O)=CC(O)=CC=C1)","OC1=CC(O)=CC=CC1=O","InChI=1S/C7H6O3/c8-5-2-1-3-6(9)7(10)4-5/h1-4,8H,(H,9,10)","RKXGVTMRMCCCBZ-UHFFFAOYSA-N","?, ?","25","potentiometric","a1/apparent","?, ?","acidic",5.76
"16216","S(=O)(=O)(NC1(=NC=CC=N1))C2(=CC=C(O)C=C2)","OC1C=CC(=CC=1)S(=O)(=O)NC1N=CC=CN=1","InChI=1S/C10H9N3O3S/c14-8-2-4-9(5-3-8)17(15,16)13-10-11-6-1-7-12-10/h1-7,14H,(H,11,12,13)","JQSRUHVUXRYZBW-UHFFFAOYSA-N","?, ?",,"spectrophotometric","a1/apparent","?, ?","acidic",6.37
"10555","O=C1(OC(C(O)CO)C(=C1O)O)","OC(CO)C1OC(=O)C(O)=C1O","InChI=1S/C6H8O6/c7-1-2(8)5-3(9)4(10)6(11)12-5/h2,5,7-10H,1H2","CIWBSHSKHKDKBQ-UHFFFAOYSA-N","?, ?, ?, ?","24","mean from 2","a1/apparent","?, OH, ?, ?","acidic",4.13
"13776","O=C1(N(O)C=NC2(=C1NC=N2))","ON1C=NC2N=CNC=2C1=O","InChI=1S/C5H4N4O2/c10-5-3-4(7-1-6-3)8-2-9(5)11/h1-2,11H,(H,6,7)","QNJHODONDIDAEE-UHFFFAOYSA-N","?, ?","20","mean from 2","a1/apparent","?, ?","acidic",5.66
"11808","O=[N+]([O-])NC1(=NNC(=N1)C)","CC1NN=C(N[N+]([O-])=O)N=1","InChI=1S/C3H5N5O2/c1-2-4-3(6-5-2)7-8(9)10/h1H3,(H2,4,5,6,7)","AKRHSQIJWHJWPC-UHFFFAOYSA-N","?, ?","24","mean from 2","a1/apparent","?, ?","acidic",4.77
"16467","S(=O)(=O)(NCC(=O)O)C=2(C=1(C(=C(N(C)C)C=CC=1)C=CC=2))","CN(C)C1C=CC=C2C(=CC=CC=12)S(=O)(=O)N=CC(O)O","InChI=1S/C14H16N2O4S/c1-16(2)12-7-3-6-11-10(12)5-4-8-13(11)21(19,20)15-9-14(17)18/h3-9,14,17-18H,1-2H3","XLOCCRWBFXMPFK-UHFFFAOYSA-N","?, ?","25","potentiometric","a2/apparent","?, ?","acidic",4.4
"16187","ClC1(=C(S(=O)(=O)N)C=C2(S(=O)(=O)NC=NC2(=C1)))","NS(=O)(=O)C1C=C2C(=CC=1Cl)N=CNS2(=O)=O","InChI=1S/C7H6ClN3O4S2/c8-4-1-5-7(2-6(4)16(9,12)13)17(14,15)11-3-10-5/h1-3H,(H,10,11)(H2,9,12,13)","JBMKAUGHUNFTOL-UHFFFAOYSA-N","?, ?",,,"a1/apparent","?, ?","acidic",6.7
"14837","O=C1(OC(C(O)C(O)C(O)CO)C(=C1O)O)","OCC(O)C(O)C(O)C1OC(=O)C(O)=C1O","InChI=1S/C8H12O8/c9-1-2(10)3(11)4(12)7-5(13)6(14)8(15)16-7/h2-4,7,9-14H,1H2","UUKACJGRXSAXDT-UHFFFAOYSA-N","?, ?","20","potentiometric","a1/apparent","?, ?","acidic",4.3
"16855","S(=O)(=O)(N)C2(=CC=C(N=NC1(=CC(=C(O)C(=C1)C)C(=O)O))C=C2)","CC1=CC(=CC(=C1O)C(O)=O)N=NC1C=CC(=CC=1)S(N)(=O)=O","InChI=1S/C14H13N3O5S/c1-8-6-10(7-12(13(8)18)14(19)20)17-16-9-2-4-11(5-3-9)23(15,21)22/h2-7,18H,1H3,(H,19,20)(H2,15,21,22)","URDMTGOCMGEJPB-UHFFFAOYSA-N","?, ?, ?","24.85","spectrophotometric","a1/apparent","COOH, OH, SO2NH2","acidic",2.25
"11470","O=C(O)C1(=C(O)C=CC=C1)","OC1C=CC=CC=1C(O)=O","InChI=1S/C7H6O3/c8-6-4-2-1-3-5(6)7(9)10/h1-4,8H,(H,9,10)","YGSDEFSMJLZEOE-UHFFFAOYSA-N","?, ?","24","mean from 22","a1/apparent","H(+), O-H","acidic",2.99
"11250","S1(=O)(=O)(N=C(N)C=2(NC=NC=2(N1)))","NC1=NS(=O)(=O)NC2N=CNC=21","InChI=1S/C4H5N5O2S/c5-3-2-4(7-1-6-2)9-12(10,11)8-3/h1,9H,(H2,5,8)(H,6,7)","XHUJLOYABCEGKW-UHFFFAOYSA-N","?, ?","20","spectrophotometric","a2/apparent","?, ?","acidic",4.28
"14938","O=C(O)C2(C1(=C(C=CC=C1)C3(=C2C=CC=C3)))","OC(O)=C1C2C=CC=CC=2C2C=CC=CC=21","InChI=1S/C14H10O2/c15-14(16)13-11-7-3-1-5-9(11)10-6-2-4-8-12(10)13/h1-8,15-16H","CHWHKRCTYLMVHN-UHFFFAOYSA-N","?, ?, ?, ?","25","mean from 2","a1/apparent","O-H, C-H, O-H, O-H","acidic",2.01
"11456","O=C1(C(O)=CC=C(C=C1)O)","OC1C=CC(=O)C(O)=CC=1","InChI=1S/C7H6O3/c8-5-1-3-6(9)7(10)4-2-5/h1-4,8H,(H,9,10)","JVHGZUMMCUZPHC-UHFFFAOYSA-N","?, ?","25","potentiometric","a1/apparent","?, ?","acidic",6.47
"13781","S1(=O)(=O)(N=CNC2(=C1NC=N2))","O=S1(=O)N=CNC2N=CNC1=2","InChI=1S/C4H4N4O2S/c9-11(10)4-3(5-1-7-4)6-2-8-11/h1-2H,(H,5,7)(H,6,8)","JTLVCJQVNVIKDL-UHFFFAOYSA-N","?, ?","21","potentiometric","a1/apparent","?, ?","acidic",5.59
"11005","O=C1(NC(=O)C=2(N=CN(C=2(N1))C))","CN1C=NC2=C1NC(=O)NC2=O","InChI=1S/C6H6N4O2/c1-10-2-7-3-4(10)8-6(12)9-5(3)11/h2H,1H3,(H2,8,9,11,12)","DHNIKYWYTSMDDA-UHFFFAOYSA-N","?, ?","18","mean from 3","a2/apparent","?, ?","acidic",6.15
"14261","O=C(O)C1(=C(O)C=C(C)C=C1)","CC1=CC(O)=C(C=C1)C(O)=O","InChI=1S/C8H8O3/c1-5-2-3-6(8(10)11)7(9)4-5/h2-4,9H,1H3,(H,10,11)","NJESAXZANHETJV-UHFFFAOYSA-N","?, ?","22","mean from 3","a1/apparent","-COOH, -OH","acidic",3.11
"14259","O=C(O)C1(=C(O)C=CC(=C1)C)","CC1C=CC(O)=C(C=1)C(O)=O","InChI=1S/C8H8O3/c1-5-2-3-7(9)6(4-5)8(10)11/h2-4,9H,1H3,(H,10,11)","DLGBEGBHXSAQOC-UHFFFAOYSA-N","?, ?","22","mean from 3","a1/apparent","-COOH, -OH","acidic",3.01
"13466","O=C1(N(NC(N1)=O)C2(=CC=CC=C2))","O=C1NC(=O)N(N1)C1C=CC=CC=1","InChI=1S/C8H7N3O2/c12-7-9-8(13)11(10-7)6-4-2-1-3-5-6/h1-5H,(H2,9,10,12,13)","WFYLHMAYBQLBEM-UHFFFAOYSA-N","?, ?","25","mean from 2","a1/apparent","?, prot.","acidic",4.9
"16622","O=[N+]([O-])C1(=CC(=C(O)C=C1)CC2(=C(C=CC(=C2)O)C))","CC1C=CC(O)=CC=1CC1C=C(C=CC=1O)[N+]([O-])=O","InChI=1S/C14H13NO4/c1-9-2-4-13(16)8-10(9)6-11-7-12(15(18)19)3-5-14(11)17/h2-5,7-8,16-17H,6H2,1H3","DEXJFQSIDPLZKW-UHFFFAOYSA-N","?, ?","25","spectrophotometric","a1/apparent","?, ?","acidic",7.03
"14260","O=C(O)C1(=C(O)C(=CC=C1)C)","CC1=CC=CC(C(O)=O)=C1O","InChI=1S/C8H8O3/c1-5-3-2-4-6(7(5)9)8(10)11/h2-4,9H,1H3,(H,10,11)","WHSXTWFYRGOBGO-UHFFFAOYSA-N","?, ?","22","mean from 3","a1/apparent","-COOH, -OH","acidic",3.02
"13566","O=C(N)C(N)CC1(=CC=C(O)C=C1)","NC(O)C(=N)CC1=CC=C(O)C=C1","InChI=1S/C9H12N2O2/c10-8(9(11)13)5-6-1-3-7(12)4-2-6/h1-4,9-10,12-13H,5,11H2","OGWDIEVBHYRJMI-UHFFFAOYSA-N","?, ?","25","mean from 2","a2/thermodynamic","?, ?","acidic",7.47
"13801","S=C1(NC(=O)NC2(=C1NC=N2))","O=C1NC2N=CNC=2C(=S)N1","InChI=1S/C5H4N4OS/c10-5-8-3-2(4(11)9-5)6-1-7-3/h1H,(H3,6,7,8,9,10,11)","RJOXFJDOUQJOMQ-UHFFFAOYSA-N","?, ?",,"spectrophotometric","a2/apparent","?, ?","acidic",6.2
"14427","O=[N+]([O-])C1(=CC(O)=C(O)C=C1)","[O-][N+](=O)C1=CC(O)=C(O)C=C1","InChI=1S/C6H5NO4/c8-5-2-1-4(7(10)11)3-6(5)9/h1-3,8-9H","XJNPNXSISMKQEX-UHFFFAOYSA-N","?, ?","25","mean from 4","a1/apparent","?, ?","acidic",6.74
"10046","O=C1(C(O)=C(O)CC1)","OC1=C(O)CC=C1O","InChI=1S/C5H6O3/c6-3-1-2-4(7)5(3)8/h1,6-8H,2H2","NLVAHMPLCACUGM-UHFFFAOYSA-N","?, ?","20","potentiometric","1/apparent","?, ?","acidic",4.8
"16623","O=[N+]([O-])C1(=CC(=C(O)C=C1)CC2(=C(O)C=CC(=C2)C))","CC1=CC(CC2C=C(C=CC=2O)[N+]([O-])=O)=C(O)C=C1","InChI=1S/C14H13NO4/c1-9-2-4-13(16)10(6-9)7-11-8-12(15(18)19)3-5-14(11)17/h2-6,8,16-17H,7H2,1H3","CMKWNYRBKWGWRG-UHFFFAOYSA-N","?, ?","25","spectrophotometric","a1/apparent","?, ?","acidic",6.34
"11965","S=C1(NC=2(N=CN=CC=2(N1)))","S=C1NC2C=NC=NC=2N1","InChI=1S/C5H4N4S/c10-5-8-3-1-6-2-7-4(3)9-5/h1-2H,(H2,6,7,8,9,10)","VABISHCLVYMGAU-UHFFFAOYSA-N","?, ?","20","potentiometric","a1/apparent","?, ?","acidic",6.64
"12246","P(=O)([O-])([O-])C([NH3+])C1(=C([O-])C(O)=CC=C1)","NC(C1C=CC=C(O)C=1O)P(O)(O)=O","InChI=1S/C7H10NO5P/c8-7(14(11,12)13)4-2-1-3-5(9)6(4)10/h1-3,7,9-10H,8H2,(H2,11,12,13)","SNERZUZRSZSUHV-UHFFFAOYSA-N","?, ?, ?","25","potentiometric","a3/apparent","?, -PO2(-)OH, ?","acidic",5.06
"17367","O=CC(O)=CO","OC=C(O)C=O","InChI=1S/C3H4O3/c4-1-3(6)2-5/h1-2,4,6H","NGSULTPMGQCSHK-UHFFFAOYSA-N","?, ?","30","spectrophotometric","a1/apparent","?, ?","acidic",5.03
"17513","O=C(O)CO","OC=C(O)O","InChI=1S/C2H4O3/c3-1-2(4)5/h1,3-5H","MLTWWHUPECYSBZ-UHFFFAOYSA-N","?, ?","26","mean from 5","a2/apparent","?, OH","acidic",3.67
"12753","O=C1(C(=O)COCC1=O)","OC1=COC=C(O)C1=O","InChI=1S/C5H4O4/c6-3-1-9-2-4(7)5(3)8/h1-2,6-7H","IGFDAUIQLNDPME-UHFFFAOYSA-N","?, ?","24","potentiometric","a1/thermodynamic","?, ?","acidic",7.62
"10954","S1(C(C=2(C=CC=CC=2(C1)))=C(O)O)","OC(O)=C1SCC2C=CC=CC=21","InChI=1S/C9H8O2S/c10-9(11)8-7-4-2-1-3-6(7)5-12-8/h1-4,10-11H,5H2","MKFLSBLKOWDJNO-UHFFFAOYSA-N","?, ?","25","kinetics","a1/apparent","OH, OH","acidic",5.32
"17087","O=C(C1(=CC=CC=C1))CC2(=CC=NC=C2)","OC(=CC1C=CN=CC=1)C1C=CC=CC=1","InChI=1S/C13H11NO/c15-13(12-4-2-1-3-5-12)10-11-6-8-14-9-7-11/h1-10,15H","DUGBGIXHQNWLNJ-UHFFFAOYSA-N","?, ?, ?","25","spectrophotometric","a1/apparent","?, ?, ?","acidic",4.19
"11457","O=C1(C(O)=C(O)C=CC=C1)","OC1C=CC=CC(=O)C=1O","InChI=1S/C7H6O3/c8-5-3-1-2-4-6(9)7(5)10/h1-4H,(H2,8,9,10)","ABNPYUDYGCGOTK-UHFFFAOYSA-N","?, ?","25","mean from 2","a1/apparent","?, ?","acidic",6.72
"15422","O=[N+]([O-])C1(=C(O)C(=CC(=C1)C)CC2(=C(C=CC(=C2)O)C))","CC1=CC(=C(O)C(CC2C=C(O)C=CC=2C)=C1)[N+]([O-])=O","InChI=1S/C15H15NO4/c1-9-5-12(15(18)14(6-9)16(19)20)7-11-8-13(17)4-3-10(11)2/h3-6,8,17-18H,7H2,1-2H3","NUEINOUBCZBAAG-UHFFFAOYSA-N","?, ?","25","spectrophotometric","a1/apparent","?, ?","acidic",7.93
"16604","S(=O)(=O)(N)C2(=CC=C(N=CC1(=C(O)C=CC=C1))C=C2)","NS(=O)(=O)C1C=CC(=CC=1)N=CC1C=CC=CC=1O","InChI=1S/C13H12N2O3S/c14-19(17,18)12-7-5-11(6-8-12)15-9-10-3-1-2-4-13(10)16/h1-9,16H,(H2,14,17,18)","ZXZQKHBNVGUISZ-UHFFFAOYSA-N","?, ?","25","potentiometric","a1/apparent","?, ?","acidic",6.63
"16188","ClC1(=C(S(=O)(=O)N)C=C2(S(=O)(=O)NCNC2(=C1)))","NS(=O)(=O)C1C=C2C(=CC=1Cl)NCNS2(=O)=O","InChI=1S/C7H8ClN3O4S2/c8-4-1-5-7(2-6(4)16(9,12)13)17(14,15)11-3-10-5/h1-2,10-11H,3H2,(H2,9,12,13)","JZUFKLXOESDKRF-UHFFFAOYSA-N","?, ?","25","potentiometric","a1/apparent","?, ?","acidic",8.42
"15297","O=C1(NC(=O)C=2(N=CN(C=2(N1))C3(OC(CO)C(C3O)O)))","OCC1OC(C(O)C1O)N1C=NC2=C1NC(=O)NC2=O","InChI=1S/C10H12N4O6/c15-1-3-5(16)6(17)9(20-3)14-2-11-4-7(14)12-10(19)13-8(4)18/h2-3,5-6,9,15-17H,1H2,(H2,12,13,18,19)","UBORTCNDUKBEOP-UHFFFAOYSA-N","?, ?","18","mean from 4","a1/apparent","?, ?","acidic",5.72
"10416","O=C(NO)C(=NO)C","CC(N=O)C(=O)NO","InChI=1S/C3H6N2O3/c1-2(4-7)3(6)5-8/h2,8H,1H3,(H,5,6)","BYFOESNENLPTIF-UHFFFAOYSA-N","?, ?","18","mean from 2","a1/apparent","C(O)NHOH, C=NOH","acidic",7.74
"15705","S=C2(NC(=O)C(C1(=CCCCC1))(CC=C)C(N2)=O)","C=CCC1(C2CCCCC=2)C(=O)NC(=S)NC1=O","InChI=1S/C13H16N2O2S/c1-2-8-13(9-6-4-3-5-7-9)10(16)14-12(18)15-11(13)17/h2,6H,1,3-5,7-8H2,(H2,14,15,16,17,18)","WASVKHBRDYJYHK-UHFFFAOYSA-N","?, ?","28","spectrophotometric","a1/apparent","?, ?","acidic",7.09
"11027","S=C1(NC(=O)NC2(=C1N(C=N2)C))","CN1C=NC2NC(=O)NC(=S)C1=2","InChI=1S/C6H6N4OS/c1-10-2-7-4-3(10)5(12)9-6(11)8-4/h2H,1H3,(H2,8,9,11,12)","BVJKWTIGJVUGCY-UHFFFAOYSA-N","?, ?",,"spectrophotometric","a2/apparent","?, ?","acidic",6.8
"16106","S=C2(NC(=O)C(C1(=CCCCC1))(CC)C(N2)=O)","CCC1(C2CCCCC=2)C(=O)NC(=S)NC1=O","InChI=1S/C12H16N2O2S/c1-2-12(8-6-4-3-5-7-8)9(15)13-11(17)14-10(12)16/h6H,2-5,7H2,1H3,(H2,13,14,15,16,17)","YOACNMNKMBYTSI-UHFFFAOYSA-N","?, ?","28","spectrophotometric","a1/apparent","?, ?","acidic",7.12
"11003","O=C1(NC(=O)C=2(N(C)C=NC=2(N1)))","CN1C=NC2NC(=O)NC(=O)C1=2","InChI=1S/C6H6N4O2/c1-10-2-7-4-3(10)5(11)9-6(12)8-4/h2H,1H3,(H2,8,9,11,12)","PFWLFWPASULGAN-UHFFFAOYSA-N","?, ?","21","mean from 6","a2/apparent","?, ?","acidic",8.45
"12227","FC1(=CC(=C(O)C=C1)CN(CC)CC)","CCN(CC1C=C(F)C=CC=1O)CC","InChI=1S/C11H16FNO/c1-3-13(4-2)8-9-7-10(12)5-6-11(9)14/h5-7,14H,3-4,8H2,1-2H3","SZUAYIXJGDMIQY-UHFFFAOYSA-N","?, ?","25","mean from 3","a1/apparent","?, ?","acidic",8.23
"15989","OC3(=C2(C1(=C(O)C=CC=C1C2=CC=C3)))","OC1C=CC=C2C=1C1C2=CC=CC=1O","InChI=1S/C12H8O2/c13-9-5-1-3-7-8-4-2-6-10(14)12(8)11(7)9/h1-6,13-14H","OWDPSNYYEYLACR-UHFFFAOYSA-N","?, ?","25","mean from 2","a1/apparent","?, ?","acidic",8.16
"17356","SC(CS)CO","OCC(S)CS","InChI=1S/C3H8OS2/c4-1-3(6)2-5/h3-6H,1-2H2","WQABCVAJNWAXTE-UHFFFAOYSA-N","?, ?","30","potentiometric","a1/apparent","?, ?","acidic",8.62
"15706","S=C2(NC(=O)C(C1(C=CCCC1))(CC=C)C(N2)=O)","C=CCC1(C2CCCC=C2)C(=O)NC(=S)NC1=O","InChI=1S/C13H16N2O2S/c1-2-8-13(9-6-4-3-5-7-9)10(16)14-12(18)15-11(13)17/h2,4,6,9H,1,3,5,7-8H2,(H2,14,15,16,17,18)","PXLVRFQEBVNJOH-UHFFFAOYSA-N","?, ?","28","spectrophotometric","a1/apparent","?, ?","acidic",7.25
"14646","S=C1(NC(=O)C(CCCC)(CC)C(N1)=O)","CCCCC1(CC)C(=O)NC(=S)NC1=O","InChI=1S/C10H16N2O2S/c1-3-5-6-10(4-2)7(13)11-9(15)12-8(10)14/h3-6H2,1-2H3,(H2,11,12,13,14,15)","GRNZOXPRBXDLPY-UHFFFAOYSA-N","?, ?","28","spectrophotometric","a1/apparent","?, ?","acidic",7.37
"14941","OC1(=C(C=CC3(=C1C2(=C(O)C(=CC=C23)C)))C)","CC1C=CC2=C(C3C2=CC=C(C)C=3O)C=1O","InChI=1S/C14H12O2/c1-7-3-5-9-10-6-4-8(2)14(16)12(10)11(9)13(7)15/h3-6,15-16H,1-2H3","TXVUFKVJTAQQFP-UHFFFAOYSA-N","?, ?","26","spectrophotometric","a1/apparent","?, ?","acidic",8.04
"12789","ClC1(=C(O)C=CC(=C1)O)","OC1=CC(Cl)=C(O)C=C1","InChI=1S/C6H5ClO2/c7-5-3-4(8)1-2-6(5)9/h1-3,8-9H","AJPXTSMULZANCB-UHFFFAOYSA-N","?, ?","23","spectrophotometric","a1/apparent","?, ?","acidic",8.81
"15838","O=C([O-])C([NH2+]CCNC(C1(=C(O)C=CC=C1))C(=O)[O-])C2(=C([O-])C=CC=C2)","OC1C=CC=CC=1C(=NCCN=C(C(O)O)C1=CC=CC=C1O)C(O)O","InChI=1S/C18H20N2O6/c21-13-7-3-1-5-11(13)15(17(23)24)19-9-10-20-16(18(25)26)12-6-2-4-8-14(12)22/h1-8,17-18,21-26H,9-10H2","QZLJCXSZJRJSPQ-UHFFFAOYSA-N","?, ?, ?, ?","25","potentiometric","a2/thermodynamic","H(1+), H(1+), H(1+), H(1+)","acidic",8.76
"11007","O=C1(N(C(=O)C=2(NC=NC=2(N1)))C)","CN1C(=O)NC2N=CNC=2C1=O","InChI=1S/C6H6N4O2/c1-10-5(11)3-4(8-2-7-3)9-6(10)12/h2H,1H3,(H,7,8)(H,9,12)","MVOYJPOZRLFTCP-UHFFFAOYSA-N","?, ?","21","mean from 4","a2/apparent","?, ?","acidic",7.88
"14872","S=C1(NC(=O)C(C(CC)CC)(CC)C(N1)=O)","CCC1(C(CC)CC)C(=O)NC(=S)NC1=O","InChI=1S/C11H18N2O2S/c1-4-7(5-2)11(6-3)8(14)12-10(16)13-9(11)15/h7H,4-6H2,1-3H3,(H2,12,13,14,15,16)","VMBXKUPZOMUHQT-UHFFFAOYSA-N","?, ?","28","spectrophotometric","a1/apparent","?, ?","acidic",7.46
"17358","SCC(O)CS","OC(CS)CS","InChI=1S/C3H8OS2/c4-3(1-5)2-6/h3-6H,1-2H2","WNPSAOYKQQUALV-UHFFFAOYSA-N","?, ?","25","potentiometric","a1/apparent","SH, SH","acidic",9.17
"11009","O=C2(N(C=1(N=CNC=1C(N2)=O))C)","CN1C2N=CNC=2C(=O)NC1=O","InChI=1S/C6H6N4O2/c1-10-4-3(7-2-8-4)5(11)9-6(10)12/h2H,1H3,(H,7,8)(H,9,11,12)","GMSNIKWWOQHZGF-UHFFFAOYSA-N","?, ?","21","mean from 6","a2/apparent","?, ?","acidic",8.49
"11760","OC1(=CC=C(CCN)C=C1)","NCCC1=CC=C(O)C=C1","InChI=1S/C8H11NO/c9-6-5-7-1-3-8(10)4-2-7/h1-4,10H,5-6,9H2","DZGWFCGJZKJUFP-UHFFFAOYSA-N","?, ?","20","mean from 2","2/thermodynamic","OH, OH","acidic",9.42
"16665","S(=O)(=O)(NC=1(SC=CN=1))C2(=CC=C(NC(=O)C)C=C2)","C/C(/O)=N\C1C=CC(=CC=1)S(=O)(=O)NC1=NC=CS1","InChI=1S/C11H11N3O3S2/c1-8(15)13-9-2-4-10(5-3-9)19(16,17)14-11-12-6-7-18-11/h2-7H,1H3,(H,12,14)(H,13,15)","KXNXWINFSDKMHD-UHFFFAOYSA-N","?, ?","25","potentiometric","a/apparent","?, ?","acidic",5.87
"16399","O=[N+]([O-])C1(=CC(=CC=C1)[CH-][N+]3(=CC=C(C(=O)CC2(=CC=CC=C2))C=C3))","[O-][N+](=O)C1C=C(C[N+]2C=CC(=CC=2)C(O)=CC2C=CC=CC=2)C=CC=1","InChI=1S/C20H16N2O3/c23-20(14-16-5-2-1-3-6-16)18-9-11-21(12-10-18)15-17-7-4-8-19(13-17)22(24)25/h1-14H,15H2/p+1","PXZQUIWYUILNKV-UHFFFAOYSA-O","?, ?","25","spectrophotometric","b1/apparent","?, ?","acidic",8.68
"13047","OC1(=C(N)C=CC(=C1)O)","NC1C=CC(O)=CC=1O","InChI=1S/C6H7NO2/c7-5-2-1-4(8)3-6(5)9/h1-3,8-9H,7H2","ROCVGJLXIARCAC-UHFFFAOYSA-N","?, ?","20","spectrophotometric","a2/apparent","?, ?","acidic",9.3
"13234","ON=C(C(=NO)C)CN(CC)CC","CC(N=O)C(CN(CC)CC)N=O","InChI=1S/C8H17N3O2/c1-4-11(5-2)6-8(10-13)7(3)9-12/h7-8H,4-6H2,1-3H3","VDVURHRUPPYEJL-UHFFFAOYSA-N","?, ?, ?","25","potentiometric","a1/apparent","?, ?, ?","acidic",8.5
"11691","ON=CC1(=CC=C(O)C=C1)","OC1=CC=C(CN=O)C=C1","InChI=1S/C7H7NO2/c9-7-3-1-6(2-4-7)5-8-10/h1-4,9H,5H2","UCMJYLGFDFZTDU-UHFFFAOYSA-N","?, ?","25","mean from 2","a1/apparent","?, ?","acidic",8.78
"10011","OC1(=C(O)C=CC=C1)","OC1C=CC=CC=1O","InChI=1S/C6H6O2/c7-5-3-1-2-4-6(5)8/h1-4,7-8H","YCIMNLLNPGFGHC-UHFFFAOYSA-N","?, ?","27","mean from 15","a1/apparent","?, ?","acidic",9.33
"13056","OC1(=C(N)C(O)=CC=C1)","NC1C(O)=CC=CC=1O","InChI=1S/C6H7NO2/c7-6-4(8)2-1-3-5(6)9/h1-3,8-9H,7H2","JEPCLNGRAIMPQV-UHFFFAOYSA-N","?, ?","20","spectrophotometric","a2/apparent","?, ?","acidic",9.3
"11309","O=C(OCC(=NO)C(=NO)C)C","CC(N=O)C(COC(=C)O)N=O","InChI=1S/C6H10N2O4/c1-4(7-10)6(8-11)3-12-5(2)9/h4,6,9H,2-3H2,1H3","LLNCHLQLMOOKOV-UHFFFAOYSA-N","?, ?","25","potentiometric","a1/apparent","?, ?","acidic",9.7
"11690","ON=CC1(=C(O)C=CC=C1)","OC1C=CC=CC=1CN=O","InChI=1S/C7H7NO2/c9-7-4-2-1-3-6(7)5-8-10/h1-4,9H,5H2","PUNVNOQWQQPNES-UHFFFAOYSA-N","?, ?","24","mean from 3","a1/apparent","?, ?","acidic",9.21
"10015","OC1(=CC=C(O)C=C1)","OC1C=CC(O)=CC=1","InChI=1S/C6H6O2/c7-5-1-2-6(8)4-3-5/h1-4,7-8H","QIGBRXMKCJKVMJ-UHFFFAOYSA-N","?, ?","23","mean from 6","a1/apparent","?, ?","acidic",9.93
"11117","[O-][N+]1(=C(N=C2(N=CNC2(=C1N)))N)","NC1=C2NC=NC2=NC(N)=[N+]1[O-]","InChI=1S/C5H6N6O/c6-3-2-4(9-1-8-2)10-5(7)11(3)12/h1H,6H2,(H3,7,8,9,10)","VUNJMZVRHYNKSG-UHFFFAOYSA-N","?, ?",,"spectrophotometric","a3/apparent","?, ?","acidic",9.7
"17122","O=C(OCC)NC1(=NC=NC2(=C1NC=N2))","CCOC(=O)NC1=NC=NC2N=CNC=21","InChI=1S/C8H9N5O2/c1-2-15-8(14)13-7-5-6(10-3-9-5)11-4-12-7/h3-4H,2H2,1H3,(H2,9,10,11,12,13,14)","UZDTUTWDEFBFHJ-UHFFFAOYSA-N","?, ?",,"spectrophotometric","a2/apparent","?, ?","acidic",9.63
"12764","OC1(=C(C=C(O)C=C1)C)","CC1C=C(O)C=CC=1O","InChI=1S/C7H8O2/c1-5-4-6(8)2-3-7(5)9/h2-4,8-9H,1H3","CNHDIAIOKMXOLK-UHFFFAOYSA-N","?, ?","22","mean from 4","a1/apparent","O-H, O-H","acidic",10.11
"11076","O=C2(NC1(=C(C=CC=C1)NC2=O))","O=C1NC2C=CC=CC=2NC1=O","InChI=1S/C8H6N2O2/c11-7-8(12)10-6-4-2-1-3-5(6)9-7/h1-4H,(H,9,11)(H,10,12)","ABJFBJGGLJVMAQ-UHFFFAOYSA-N","?, ?","20","mean from 3","a1/apparent","?, ?","acidic",9.67
"12333","OC2(=C(C1(=C(O)C=CC=C1))C=CC=C2)","OC1C=CC=CC=1C1C=CC=CC=1O","InChI=1S/C12H10O2/c13-11-7-3-1-5-9(11)10-6-2-4-8-12(10)14/h1-8,13-14H","IMHDGJOMLMDPJN-UHFFFAOYSA-N","?, ?",,"spectrophotometric","a1/apparent","OH, OH","acidic",7.5
"12624","ON=C(C(=NO)C)CO","CC(N=O)C(CO)N=O","InChI=1S/C4H8N2O3/c1-3(5-8)4(2-7)6-9/h3-4,7H,2H2,1H3","LARIWXLTTIUHOU-UHFFFAOYSA-N","?, ?","25","mean from 2","a1/apparent","?, ?","acidic",10.1
"17083","O=C(C1(=CC=CC=C1))CC2(=CN=CC=C2)","OC(=CC1=CN=CC=C1)C1C=CC=CC=1","InChI=1S/C13H11NO/c15-13(12-6-2-1-3-7-12)9-11-5-4-8-14-10-11/h1-10,15H","ILZNWGULWSSLKT-UHFFFAOYSA-N","?, ?","25","spectrophotometric","a1/apparent","?, ?","acidic",8.79
"12847","OC1(=CC(O)=CC(=C1)O)","OC1C=C(O)C=C(O)C=1","InChI=1S/C6H6O3/c7-4-1-5(8)3-6(9)2-4/h1-3,7-9H","QCDYQQDYXPDABM-UHFFFAOYSA-N","?, ?","26","mean from 6","a1/apparent","?, ?","acidic",8.83
"14326","ON=C1(C(=NO)CCCCC1)","O=NC1CCCCCC1N=O","InChI=1S/C7H12N2O2/c10-8-6-4-2-1-3-5-7(6)9-11/h6-7H,1-5H2","JPOFMNPDKKAADL-UHFFFAOYSA-N","?, ?","24","mean from 2","a1/apparent","?, ?","acidic",10.7
"11540","ON=C1(C(=NO)CCCC1)","O=NC1CCCCC1N=O","InChI=1S/C6H10N2O2/c9-7-5-3-1-2-4-6(5)8-10/h5-6H,1-4H2","XCJOMFFNVGLZCV-UHFFFAOYSA-N","?, ?","22","mean from 3","a1/apparent","?, ?","acidic",10.53
"12335","OC2(=CC=C(C1(=CC=C(O)C=C1))C=C2)","OC1C=CC(=CC=1)C1C=CC(O)=CC=1","InChI=1S/C12H10O2/c13-11-5-1-9(2-6-11)10-3-7-12(14)8-4-10/h1-8,13-14H","VCCBEIPGXKNHFW-UHFFFAOYSA-N","?, ?",,"spectrophotometric","a1/apparent","OH, OH","acidic",9.4
"17093","O=C(C1(=CC=CC=C1))CC2(=NC=CC=C2)","OC(=CC1C=CC=CN=1)C1C=CC=CC=1","InChI=1S/C13H11NO/c15-13(11-6-2-1-3-7-11)10-12-8-4-5-9-14-12/h1-10,15H","IXQUHMXYFKDBDA-UHFFFAOYSA-N","?, ?, ?","25","spectrophotometric","a1/apparent","?, ?, ?","acidic",11.1