"Molecule name","OriginalSmiles","Canonical_QSARr","InChI_Code_QSARr","InChI Key_QSARr","Salt_Solvent (Concatenate)","temp","method","type","group","basicOrAcidic","pKa"
"15943","N(=C(C1(=C(C=CC=C1)C))C2(=C(C=CC=C2)C))CCCN(C)C","CN(C)CCCN=C(C1C=CC=CC=1C)C1C=CC=CC=1C","InChI=1S/C20H26N2/c1-16-10-5-7-12-18(16)20(21-14-9-15-22(3)4)19-13-8-6-11-17(19)2/h5-8,10-13H,9,14-15H2,1-4H3","ZZZSDDPSKYQOIU-UHFFFAOYSA-N","?, ?","25","potentiometric","a2/apparent","?, ?","basic",8.7
"11976","[O-]C1(=[NH+]C=NC2(=C1NC=N2))","OC1=NC=NC2N=CNC=21","InChI=1S/C5H4N4O/c10-5-3-4(7-1-6-3)8-2-9-5/h1-2H,(H2,6,7,8,9,10)","FDGQSTZJBFJUBT-UHFFFAOYSA-N","?, ?, ?","20","mean from 2","a1/apparent","?, ?, ?","basic",8.81
"11524","ClC1(=C(N)C=C(CN)C=C1)","NC1C=C(CN)C=CC=1Cl","InChI=1S/C7H9ClN2/c8-6-2-1-5(4-9)3-7(6)10/h1-3H,4,9-10H2","PLYPQPNMLWQERN-UHFFFAOYSA-N","?, ?","25","potentiometric","a2/apparent","?, ?","basic",9.33
"10902","NC1(C(C(N)C(C)C(C1C)N)C)","CC1C(N)C(C)C(N)C(C)C1N","InChI=1S/C9H21N3/c1-4-7(10)5(2)9(12)6(3)8(4)11/h4-9H,10-12H2,1-3H3","IPDXATCBSCSGLA-UHFFFAOYSA-N","?, ?, ?","24.85","potentiometric","a1/apparent","NH3%+&, NH3%+&, NH3%+&","basic",7.83
"15218","N(=C(C=1(C=2(C(C=CC=1)=CC=CC=2)))C3(=CC=CC=C3))CCCN(C)C","CN(C)CCCN=C(C1=CC=CC2=CC=CC=C21)C1C=CC=CC=1","InChI=1S/C22H24N2/c1-24(2)17-9-16-23-22(19-11-4-3-5-12-19)21-15-8-13-18-10-6-7-14-20(18)21/h3-8,10-15H,9,16-17H2,1-2H3","NRSXWPRDDNRZJJ-UHFFFAOYSA-N","?, ?","25","potentiometric","a2/apparent","?, ?","basic",9.0
"16687","N1(=CC(=C2(C=3(C=CC=CC=3(NC2(=C1)))))C4(N(CCC4)C))","CN1CCCC1C1C=NC=C2NC3C=CC=CC=3C=12","InChI=1S/C16H17N3/c1-19-8-4-7-15(19)12-9-17-10-14-16(12)11-5-2-3-6-13(11)18-14/h2-3,5-6,9-10,15,18H,4,7-8H2,1H3","VLAKQKXXKNRDJR-UHFFFAOYSA-N","?, ?","20","spectrophotometric","a2/thermodynamic","NH, NH","basic",8.02
"16455","N(=C(C1(=C(C=CC=C1)C))C2(=CC=CC=C2))CCCN(C)C","CC1C=CC=CC=1C(=NCCCN(C)C)C1C=CC=CC=1","InChI=1S/C19H24N2/c1-16-10-7-8-13-18(16)19(17-11-5-4-6-12-17)20-14-9-15-21(2)3/h4-8,10-13H,9,14-15H2,1-3H3","PWBRLLAHCYSPOQ-UHFFFAOYSA-N","?, ?","25","potentiometric","a2/apparent","?, ?","basic",9.0
"11276","O=C([O-])C1([NH2+]CC=2(N=CNC=2(C1)))","OC(O)C1CC2NC=NC=2CN=1","InChI=1S/C7H9N3O2/c11-7(12)5-1-4-6(2-8-5)10-3-9-4/h3,7,11-12H,1-2H2,(H,9,10)","CUEJXXZBOIYETH-UHFFFAOYSA-N","?, ?","25","potentiometric","a1/thermodynamic","?, ?","basic",8.58
"16827","ClC2(=CC=C(NC1(=NC(=NC(=N1)C)NCCN(CC)CC))C=C2)","CC1N=C(NCCN(CC)CC)N=C(NC2C=CC(Cl)=CC=2)N=1","InChI=1S/C16H23ClN6/c1-4-23(5-2)11-10-18-15-19-12(3)20-16(22-15)21-14-8-6-13(17)7-9-14/h6-9H,4-5,10-11H2,1-3H3,(H2,18,19,20,21,22)","JIBKLXUBAFVICQ-UHFFFAOYSA-N","?, ?","25","potentiometric","a2/apparent","?, ?","basic",9.3
"17797","N(C1(C(NC)C1))C","CNC1CC1NC","InChI=1S/C5H12N2/c1-6-4-3-5(4)7-2/h4-7H,3H2,1-2H3","IVILUQJUMVITIB-UHFFFAOYSA-N","?, ?, ?, ?","25",,"a2/thermodynamic","NH, NH, NH, NH","basic",8.73
"14145","ON=C(N)CCNCCCC","CCCCNCCC(N)N=O","InChI=1S/C7H17N3O/c1-2-3-5-9-6-4-7(8)10-11/h7,9H,2-6,8H2,1H3","GEVAWIZZKIKUQO-UHFFFAOYSA-N","?, ?","20","potentiometric","a2/apparent","?, ?","basic",9.6
"14782","O(CCN1(C(=NC2(=C1C=CC=C2))N4(CCN(CCCCN3(N=CC=C3))CCC4)))CC","CCOCCN1C(=NC2C=CC=CC1=2)N1CCCN(CC1)CCCCN1C=CC=N1","InChI=1S/C23H34N6O/c1-2-30-20-19-29-22-10-4-3-9-21(22)25-23(29)27-14-8-13-26(17-18-27)12-5-6-15-28-16-7-11-24-28/h3-4,7,9-11,16H,2,5-6,8,12-15,17-20H2,1H3","DQMJFXBBHDLDCL-UHFFFAOYSA-N","?, ?","25","potentiometric","a2/apparent","?, ?","basic",8.5
"12874","N1(=C(C=CC=C1)CCN)","NCCC1C=CC=CN=1","InChI=1S/C7H10N2/c8-5-4-7-3-1-2-6-9-7/h1-3,6H,4-5,8H2","XPQIPUZPSLAZDV-UHFFFAOYSA-N","?, ?","25","potentiometric","a1/apparent","?, ?","basic",9.51
"16391","N(=C(C1(=C(C=CC=C1)C))C3(=CC=2(C(=CC=CC=2)C=C3)))CCCN(C)C","CC1C=CC=CC=1C(=NCCCN(C)C)C1=CC2=CC=CC=C2C=C1","InChI=1S/C23H26N2/c1-18-9-4-7-12-22(18)23(24-15-8-16-25(2)3)21-14-13-19-10-5-6-11-20(19)17-21/h4-7,9-14,17H,8,15-16H2,1-3H3","IEEWBDZUOLVFHY-UHFFFAOYSA-N","?, ?","25","potentiometric","a2/apparent","?, ?","basic",8.9
"16486","O=C([O-])C(NC(=O)C([NH3+])CC=1(N=CNC=1))CC=2(N=CNC=2)","N=C(CC1=CNC=N1)C(O)NC(CC1=CNC=N1)=C(O)O","InChI=1S/C12H16N6O3/c13-9(1-7-3-14-5-16-7)11(19)18-10(12(20)21)2-8-4-15-6-17-8/h3-6,11,13,18-21H,1-2H2,(H,14,16)(H,15,17)","BLZSXQJXNOHNHY-UHFFFAOYSA-N","?, ?, ?","25","potentiometric","a3/apparent","?, ?, ?","basic",7.8
"14637","O=C(NCC(=O)[O-])C([NH3+])CC=1(N=CNC=1)","NC(CC1=CNC=N1)=C(O)N=CC(O)O","InChI=1S/C8H12N4O3/c9-6(1-5-2-10-4-12-5)8(15)11-3-7(13)14/h2-4,7,13-15H,1,9H2,(H,10,12)","MKIGTIQWEHZQAV-UHFFFAOYSA-N","?, ?, ?","25","potentiometric","a2/apparent","?, ?, ?","basic",7.82
"17292","N1(CNCCC1)","C1NCCCN1","InChI=1S/C4H10N2/c1-2-5-4-6-3-1/h5-6H,1-4H2","DKYBVKMIZODYKL-UHFFFAOYSA-N","?, ?","25",,"b1/apparent","?, ?","basic",8.84
"14790","O=C([O-])C=1(C=NN(C=1)CCCC[NH+]4(CCN(C2(=NC=3(C=CC=CC=3(N2CCOCC))))CCC4))","CCOCCN1C(=NC2C=CC=CC1=2)N1CCCN(CC1)CCCCN1C=C(C=N1)C(O)=O","InChI=1S/C24H34N6O3/c1-2-33-17-16-30-22-9-4-3-8-21(22)26-24(30)28-12-7-11-27(14-15-28)10-5-6-13-29-19-20(18-25-29)23(31)32/h3-4,8-9,18-19H,2,5-7,10-17H2,1H3,(H,31,32)","JUOSGHHMAXJZFR-UHFFFAOYSA-N","?, ?","25","potentiometric","a2/apparent","?, ?","basic",8.5
"15807","N(=C(C2(=C(C1(=CC=CC=C1))C=CC=C2))C3(=CC=CC=C3))CCCN(C)C","CN(C)CCCN=C(C1C=CC=CC=1C1C=CC=CC=1)C1C=CC=CC=1","InChI=1S/C24H26N2/c1-26(2)19-11-18-25-24(21-14-7-4-8-15-21)23-17-10-9-16-22(23)20-12-5-3-6-13-20/h3-10,12-17H,11,18-19H2,1-2H3","HUYXYIRBYJQSBN-UHFFFAOYSA-N","?, ?","25","potentiometric","a1/apparent","?, ?","basic",9.2
"15309","O(C3(=CC=1(C(=NC=CC=1C(O)C2(NCCCC2))C=C3)))C","COC1C=CC2=NC=CC(C(O)C3CCCCN3)=C2C=1","InChI=1S/C16H20N2O2/c1-20-11-5-6-14-13(10-11)12(7-9-18-14)16(19)15-4-2-3-8-17-15/h5-7,9-10,15-17,19H,2-4,8H2,1H3","YZBXMDQMMIOHLZ-UHFFFAOYSA-N","?, ?","30","potentiometric","a2/apparent","?, ?","basic",9.3
"15942","N1(=C(C=CC=C1)C(C2(=CC=CC=C2))CCN(C(C)C)C(C)C)","CC(C)N(CCC(C1C=CC=CN=1)C1C=CC=CC=1)C(C)C","InChI=1S/C20H28N2/c1-16(2)22(17(3)4)15-13-19(18-10-6-5-7-11-18)20-12-8-9-14-21-20/h5-12,14,16-17,19H,13,15H2,1-4H3","GFXULIDILONRED-UHFFFAOYSA-N","?, ?","20","spectrophotometric","a2/apparent","N-H, N-H","basic",10.5
"10090","N(C1(C(NC)C1C))C","CC1C(NC)C1NC","InChI=1S/C6H14N2/c1-4-5(7-2)6(4)8-3/h4-8H,1-3H3","UQNADEMUCMKKEQ-UHFFFAOYSA-N","?, ?, ?, ?","25",,"a2/thermodynamic","NH, NH, NH, NH","basic",9.13
"10725","O(C1(=C(N)C=C(C)C(=C1)CN))C","CC1=CC(N)=C(C=C1CN)OC","InChI=1S/C9H14N2O/c1-6-3-8(11)9(12-2)4-7(6)5-10/h3-4H,5,10-11H2,1-2H3","UWKWNJWYTSYJQR-UHFFFAOYSA-N","?, ?","25","potentiometric","a2/apparent","?, ?","basic",9.54
"15021","O1(C(=CC=C1)CNC2(=NC=NC3(=C2NC=N3)))","C(NC1=NC=NC2N=CNC=21)C1=CC=CO1","InChI=1S/C10H9N5O/c1-2-7(16-3-1)4-11-9-8-10(13-5-12-8)15-6-14-9/h1-3,5-6H,4H2,(H2,11,12,13,14,15)","QANMHLXAZMSUEX-UHFFFAOYSA-N","?, ?",,"spectrophotometric","a2/apparent","?, ?","basic",10.0
"14772","O=C([O-])C=1(C=NN(C=1)CCCC[NH+]4(CCN(CC2(=NC=3(C=CC=CC=3(N2CCOCC))))CCC4))","CCOCCN1C2C=CC=CC=2N=C1CN1CCCN(CCCCN2C=C(C=N2)C(O)=O)CC1","InChI=1S/C25H36N6O3/c1-2-34-17-16-31-23-9-4-3-8-22(23)27-24(31)20-29-12-7-11-28(14-15-29)10-5-6-13-30-19-21(18-26-30)25(32)33/h3-4,8-9,18-19H,2,5-7,10-17,20H2,1H3,(H,32,33)","QDWIPDVOIIPVMV-UHFFFAOYSA-N","?, ?","25","potentiometric","a2/apparent","?, ?","basic",9.1
"15609","O1(CCN(CCCN(CC(O)C)CC(O)C)CC1)","CC(O)CN(CC(C)O)CCCN1CCOCC1","InChI=1S/C13H28N2O3/c1-12(16)10-15(11-13(2)17)5-3-4-14-6-8-18-9-7-14/h12-13,16-17H,3-11H2,1-2H3","REDLMXNXEJVVCU-UHFFFAOYSA-N","?, ?",,"potentiometric","a2/apparent","?, ?","basic",8.4
"16806","N(=C(C2(=C(C1(=CC=CC=C1))C=CC=C2))C3(=C(C=CC=C3)C))CCCN(C)C","CC1C=CC=CC=1C(=NCCCN(C)C)C1C=CC=CC=1C1C=CC=CC=1","InChI=1S/C25H28N2/c1-20-12-7-8-15-22(20)25(26-18-11-19-27(2)3)24-17-10-9-16-23(24)21-13-5-4-6-14-21/h4-10,12-17H,11,18-19H2,1-3H3","DWIRGGJXYJIOEN-UHFFFAOYSA-N","?, ?","25","potentiometric","a2/apparent","?, ?","basic",9.25
"10319","[S-]C1(=[NH+]C=CC(=N1)N)","NC1C=CN=C(S)N=1","InChI=1S/C4H5N3S/c5-3-1-2-6-4(8)7-3/h1-2H,(H3,5,6,7,8)","DCPSTSVLRXOYGS-UHFFFAOYSA-N","?, ?","20","potentiometric","a1/apparent","?, ?","basic",10.63
"16816","N(=C(C1(=C(C=CC=C1)C))C2(=C(C=CC=C2)C))CCCCN(C)C","CN(C)CCCCN=C(C1C=CC=CC=1C)C1C=CC=CC=1C","InChI=1S/C21H28N2/c1-17-11-5-7-13-19(17)21(20-14-8-6-12-18(20)2)22-15-9-10-16-23(3)4/h5-8,11-14H,9-10,15-16H2,1-4H3","JHCXINWJTAKFGM-UHFFFAOYSA-N","?, ?","25","potentiometric","a2/apparent","?, ?","basic",8.8
"17577","NC1(C(N)C1)","NC1CC1N","InChI=1S/C3H8N2/c4-2-1-3(2)5/h2-3H,1,4-5H2","DQSBSLFFVASXRY-UHFFFAOYSA-N","?, ?, ?, ?","25",,"a2/thermodynamic","NH, NH, NH, NH","basic",9.04
"11507","NC1(=C(C=CC(=C1)CN)C)","CC1C=CC(CN)=CC=1N","InChI=1S/C8H12N2/c1-6-2-3-7(5-9)4-8(6)10/h2-4H,5,9-10H2,1H3","WNCSDYWOHLQEHM-UHFFFAOYSA-N","?, ?","25","potentiometric","a2/apparent","?, ?","basic",9.77
"11506","NC1(=CC(=C(CN)C=C1)C)","CC1C=C(N)C=CC=1CN","InChI=1S/C8H12N2/c1-6-4-8(10)3-2-7(6)5-9/h2-4H,5,9-10H2,1H3","AFGYVMDWBLABIW-UHFFFAOYSA-N","?, ?","25","potentiometric","a2/apparent","?, ?","basic",9.77
"12873","N1(=CC(=CC=C1)CCN)","NCCC1C=NC=CC=1","InChI=1S/C7H10N2/c8-4-3-7-2-1-5-9-6-7/h1-2,5-6H,3-4,8H2","NAHHNSMHYCLMON-UHFFFAOYSA-N","?, ?","25","potentiometric","a1/apparent","?, ?","basic",9.44
"17282","NC1(C(N)C1C)","CC1C(N)C1N","InChI=1S/C4H10N2/c1-2-3(5)4(2)6/h2-4H,5-6H2,1H3","CNMAFRXOHFXMJN-UHFFFAOYSA-N","?, ?, ?, ?","25",,"a2/thermodynamic","NH, NH, NH, NH","basic",8.98
"12919","S1(CCNCCNCC1)","C1CNCCNCCS1","InChI=1S/C6H14N2S/c1-2-8-4-6-9-5-3-7-1/h7-8H,1-6H2","CIBAIKDMTBNPNQ-UHFFFAOYSA-N","?, ?","25","potentiometric","b1/apparent","NH, NH","basic",10.0
"12870","NC1(=CC=C(CN)C=C1)","NC1C=CC(CN)=CC=1","InChI=1S/C7H10N2/c8-5-6-1-3-7(9)4-2-6/h1-4H,5,8-9H2","BFWYZZPDZZGSLJ-UHFFFAOYSA-N","?, ?","25","potentiometric","a2/apparent","?, ?","basic",10.0
"15668","N=2(C(C1(=CC=C(N=CN(C(C)C)C)C=C1))=CNC=2)","CC(C)N(C)C=NC1C=CC(=CC=1)C1=CNC=N1","InChI=1S/C14H18N4/c1-11(2)18(3)10-17-13-6-4-12(5-7-13)14-8-15-9-16-14/h4-11H,1-3H3,(H,15,16)","DORBKCFHHJWAHB-UHFFFAOYSA-N","?, ?","25","potentiometric","a1/apparent","NH(1+), NH(1+)","basic",8.72
"12968","O1(CCN(CCN)CC1)","NCCN1CCOCC1","InChI=1S/C6H14N2O/c7-1-2-8-3-5-9-6-4-8/h1-7H2","RWIVICVCHVMHMU-UHFFFAOYSA-N","?, ?","30","potentiometric","a2/apparent","?, ?","basic",9.45
"15221","N(=C(C2(=CC=1(C(=CC=CC=1)C=C2)))C3(=CC=CC=C3))CCCN(C)C","CN(C)CCCN=C(C1=CC2=CC=CC=C2C=C1)C1C=CC=CC=1","InChI=1S/C22H24N2/c1-24(2)16-8-15-23-22(19-10-4-3-5-11-19)21-14-13-18-9-6-7-12-20(18)17-21/h3-7,9-14,17H,8,15-16H2,1-2H3","QZNKCZXHVYZSGO-UHFFFAOYSA-N","?, ?","25","potentiometric","a2/apparent","?, ?","basic",9.2
"15082","O1(C(=CC=C1)CNCCNCC=2(OC=CC=2))","C(NCCNCC1=CC=CO1)C1=CC=CO1","InChI=1S/C12H16N2O2/c1-3-11(15-7-1)9-13-5-6-14-10-12-4-2-8-16-12/h1-4,7-8,13-14H,5-6,9-10H2","XQAWOCYMTJHYGC-UHFFFAOYSA-N","?, ?","20","potentiometric","a2/apparent","?, ?","basic",8.61
"12871","N1(=CC=C(CCN)C=C1)","NCCC1C=CN=CC=1","InChI=1S/C7H10N2/c8-4-1-7-2-5-9-6-3-7/h2-3,5-6H,1,4,8H2","IDLHTECVNDEOIY-UHFFFAOYSA-N","?, ?","25","potentiometric","a1/apparent","?, ?","basic",9.37
"15666","N=2(C(C1(=CC=C(N=CNC(C)C)C=C1))=CN(C=2)C)","CC(C)N/C=N/C1C=CC(=CC=1)C1=CN(C)C=N1","InChI=1S/C14H18N4/c1-11(2)15-9-16-13-6-4-12(5-7-13)14-8-18(3)10-17-14/h4-11H,1-3H3,(H,15,16)","HBWDHOJIRGCMJM-UHFFFAOYSA-N","?, ?","25","potentiometric","a1/apparent","NH(1+), NH(1+)","basic",8.99
"16784","O=C(NC(C(=O)NCCC)CC=1(N=CNC=1))C2(=NC(=CC=C2)CNCCN)","CCCNC(O)C(CC1=CNC=N1)=NC(=O)C1=CC=CC(CNCCN)=N1","InChI=1S/C18H27N7O2/c1-2-7-22-17(26)16(9-14-11-21-12-23-14)25-18(27)15-5-3-4-13(24-15)10-20-8-6-19/h3-5,11-12,17,20,22,26H,2,6-10,19H2,1H3,(H,21,23)","QSTUXZIMSTWFQR-UHFFFAOYSA-N","?, ?, ?","25","potentiometric","a3/apparent","-NH2-H, N(pyr)-H, N(Im)-H","basic",9.3
"15983","S(=O)(=O)(NCC[NH+](C)C)C=2(C=1(C(=C(N(C)C)C=CC=1)C=CC=2))","CN(C)CCNS(=O)(=O)C1=CC=CC2C1=CC=CC=2N(C)C","InChI=1S/C16H23N3O2S/c1-18(2)12-11-17-22(20,21)16-10-6-7-13-14(16)8-5-9-15(13)19(3)4/h5-10,17H,11-12H2,1-4H3","NPYRWTUWELBQJS-UHFFFAOYSA-N","?, ?","25","potentiometric","a3/apparent","?, ?","basic",10.94
"13166","N1(CCC(NN)CC1)(C)","CN1CCC(CC1)NN","InChI=1S/C6H15N3/c1-9-4-2-6(8-7)3-5-9/h6,8H,2-5,7H2,1H3","GSUCKVZTSXHESM-UHFFFAOYSA-N","?, ?","20","potentiometric","a2/apparent","?, ?","basic",8.85
"16618","S1(C(=NC(=C1)C2(=CC(N=CNC)=CC=C2))N=C(N)N)","CN/C=N/C1C=C(C=CC=1)C1=CSC(N=C(N)N)=N1","InChI=1S/C12H14N6S/c1-15-7-16-9-4-2-3-8(5-9)10-6-19-12(17-10)18-11(13)14/h2-7H,1H3,(H,15,16)(H4,13,14,17,18)","MRTUBNJTWHQTJJ-UHFFFAOYSA-N","?, ?","25","potentiometric","a2/apparent","?, ?","basic",8.29
"15384","N(=C(C1(=CC=CC=C1))C2(=CC=CC=C2))CCCN(C)C","CN(C)CCCN=C(C1C=CC=CC=1)C1C=CC=CC=1","InChI=1S/C18H22N2/c1-20(2)15-9-14-19-18(16-10-5-3-6-11-16)17-12-7-4-8-13-17/h3-8,10-13H,9,14-15H2,1-2H3","IUIJYJKVSKZMGO-UHFFFAOYSA-N","?, ?","25","potentiometric","a2/apparent","?, ?","basic",9.4
"17787","N1(CCNCC1)(C)","CN1CCNCC1","InChI=1S/C5H12N2/c1-7-4-2-6-3-5-7/h6H,2-5H2,1H3","PVOAHINGSUIXLS-UHFFFAOYSA-N","?, ?","25","mean from 2","a1/apparent","NH3(1+), ?","basic",9.6
"16839","ClC2(=CC=C(NC1(=NC(=NC(=C1)NCCN(CC)CC)C))C=C2)","CC1N=C(C=C(NCCN(CC)CC)N=1)NC1=CC=C(Cl)C=C1","InChI=1S/C17H24ClN5/c1-4-23(5-2)11-10-19-16-12-17(21-13(3)20-16)22-15-8-6-14(18)7-9-15/h6-9,12H,4-5,10-11H2,1-3H3,(H2,19,20,21,22)","ZGHOULVHFJMWNN-UHFFFAOYSA-N","?, ?","25","potentiometric","a2/apparent","?, ?","basic",9.3
"12971","OCCN1(CCNCC1)","OCCN1CCNCC1","InChI=1S/C6H14N2O/c9-6-5-8-3-1-7-2-4-8/h7,9H,1-6H2","WFCSWCVEJLETKA-UHFFFAOYSA-N","?, ?","25","mean from 6","a2/apparent","?, H(1+)","basic",9.33
"11933","N(CCN(C)C)(CCN)C","CN(C)CCN(C)CCN","InChI=1S/C7H19N3/c1-9(2)6-7-10(3)5-4-8/h4-8H2,1-3H3","KRDDBYPPQLOAPV-UHFFFAOYSA-N","?, ?, ?","25","potentiometric","b3/thermodynamic","ammonium, ammonium, ammonium","basic",9.88
"12604","N(C(CN(C)C)C)(C)C","CN(C)C(C)CN(C)C","InChI=1S/C7H18N2/c1-7(9(4)5)6-8(2)3/h7H,6H2,1-5H3","JUXXCHAGQCBNTI-UHFFFAOYSA-N","?, ?","30","potentiometric","a2/apparent","?, ?","basic",9.49
"14132","N(CCNCCN(C)C)(C)C","CN(C)CCNCCN(C)C","InChI=1S/C8H21N3/c1-10(2)7-5-9-6-8-11(3)4/h9H,5-8H2,1-4H3","JPJMSWSYYHNPLD-UHFFFAOYSA-N","?, ?, ?","25","potentiometric","b3/thermodynamic","ammonium, ammonium, ammonium","basic",9.59
"17781","NC1(C(C)(C)C1N)","CC1(C)C(N)C1N","InChI=1S/C5H12N2/c1-5(2)3(6)4(5)7/h3-4H,6-7H2,1-2H3","ZBJPTHZKTKBGGR-UHFFFAOYSA-N","?, ?","25",,"a2/thermodynamic","NH, NH","basic",8.96
"14367","O(C1(=C(C=C(N)C=C1)CN))C","COC1C=CC(N)=CC=1CN","InChI=1S/C8H12N2O/c1-11-8-3-2-7(10)4-6(8)5-9/h2-4H,5,9-10H2,1H3","KDIUEAHNDJOIFR-UHFFFAOYSA-N","?, ?","25","potentiometric","a2/apparent","?, ?","basic",9.77
"11350","N(CCN(C)C)(CCN(C)C)C","CN(CCN(C)C)CCN(C)C","InChI=1S/C9H23N3/c1-10(2)6-8-12(5)9-7-11(3)4/h6-9H2,1-5H3","UKODFQOELJFMII-UHFFFAOYSA-N","?, ?, ?, ?","25","potentiometric","b3/thermodynamic","ammonium, ?, ammonium, ammonium","basic",9.55
"11510","N1(=C(C=CC=C1)CCCN)","NCCCC1C=CC=CN=1","InChI=1S/C8H12N2/c9-6-3-5-8-4-1-2-7-10-8/h1-2,4,7H,3,5-6,9H2","UGYRJDSEKCYZKI-UHFFFAOYSA-N","?, ?","25","potentiometric","a1/apparent","?, ?","basic",10.1
"10074","N1(C(CNC(C1)C)C)","CC1CNC(C)CN1","InChI=1S/C6H14N2/c1-5-3-8-6(2)4-7-5/h5-8H,3-4H2,1-2H3","NSMWYRLQHIXVAP-UHFFFAOYSA-N","?, ?, ?, ?","25","potentiometric","b1/apparent","?, ?, ?, ?","basic",9.98
"12697","N(CCC(NN)C)(C)C","CC(CCN(C)C)NN","InChI=1S/C6H17N3/c1-6(8-7)4-5-9(2)3/h6,8H,4-5,7H2,1-3H3","AAFSDMYCGOVVEV-UHFFFAOYSA-N","?, ?","20","potentiometric","a2/apparent","?, ?","basic",9.23
"15390","P(=O)(O)([O-])C([NH2+]CC1(=NC=CC=C1))C2(=C(O)C=CC=C2)","OC1=CC=CC=C1C(NCC1=CC=CC=N1)P(O)(O)=O","InChI=1S/C13H15N2O4P/c16-12-7-2-1-6-11(12)13(20(17,18)19)15-9-10-5-3-4-8-14-10/h1-8,13,15-16H,9H2,(H2,17,18,19)","CXAZUCPQVRLWEI-UHFFFAOYSA-N","?, ?","20","potentiometric","b2/apparent","?, ?","basic",12.06
"17404","O=C(CN)CN","NCC(O)C=N","InChI=1S/C3H8N2O/c4-1-3(6)2-5/h1,3-4,6H,2,5H2","LGDXWCWJJWECTG-UHFFFAOYSA-N","?, ?","22","potentiometric","a1/apparent","?, ?","basic",8.32
"11509","N1(=CC(=CC=C1)CCCN)","NCCCC1C=NC=CC=1","InChI=1S/C8H12N2/c9-5-1-3-8-4-2-6-10-7-8/h2,4,6-7H,1,3,5,9H2","CORPZWBVJRCLMW-UHFFFAOYSA-N","?, ?","25","potentiometric","a1/apparent","?, ?","basic",10.05
"10916","O=C([O-])C([NH3+])CC=1(N(C=NC=1)C)","CN1C=NC=C1CC(=N)C(O)O","InChI=1S/C7H11N3O2/c1-10-4-9-3-5(10)2-6(8)7(11)12/h3-4,7-8,11-12H,2H2,1H3","HVLOOGGWSPSKQD-UHFFFAOYSA-N","?, ?","24","mean from 2","a2/apparent","?, ?","basic",8.72
"10110","N1(C(CNCC1C)C)","CC1CNCC(C)N1","InChI=1S/C6H14N2/c1-5-3-7-4-6(2)8-5/h5-8H,3-4H2,1-2H3","IFNWESYYDINUHV-UHFFFAOYSA-N","?, ?","25","potentiometric","b1/apparent","?, ?","basic",9.86
"15396","P(=O)(O)([O-])C([NH2+]CC1(=CC=NC=C1))C2(=C(O)C=CC=C2)","OC1=CC=CC=C1C(NCC1C=CN=CC=1)P(O)(O)=O","InChI=1S/C13H15N2O4P/c16-12-4-2-1-3-11(12)13(20(17,18)19)15-9-10-5-7-14-8-6-10/h1-8,13,15-16H,9H2,(H2,17,18,19)","LDXHSYVEVZCOGV-UHFFFAOYSA-N","?, ?","20","potentiometric","b2/apparent","?, ?","basic",12.15
"15393","P(=O)(O)([O-])C([NH2+]CC1(=CN=CC=C1))C2(=C(O)C=CC=C2)","OC1=CC=CC=C1C(NCC1C=NC=CC=1)P(O)(O)=O","InChI=1S/C13H15N2O4P/c16-12-6-2-1-5-11(12)13(20(17,18)19)15-9-10-4-3-7-14-8-10/h1-8,13,15-16H,9H2,(H2,17,18,19)","GHRFZZCEUPGLIT-UHFFFAOYSA-N","?, ?","20","potentiometric","b2/apparent","?, ?","basic",12.16
"15669","N1(=CN(C)C(=C1)C2(=CC=C(N=CNC(C)C)C=C2))","CC(C)N/C=N/C1C=CC(=CC=1)C1=CN=CN1C","InChI=1S/C14H18N4/c1-11(2)16-9-17-13-6-4-12(5-7-13)14-8-15-10-18(14)3/h4-11H,1-3H3,(H,16,17)","OOASGQQJXFMHRN-UHFFFAOYSA-N","?, ?","25","potentiometric","a1/apparent","NH(1+), NH(1+)","basic",8.83
"17786","N1(C(CNCC1)C)","CC1CNCCN1","InChI=1S/C5H12N2/c1-5-4-6-2-3-7-5/h5-7H,2-4H2,1H3","JOMNTHCQHJPVAZ-UHFFFAOYSA-N","?, ?","25","potentiometric","b1/apparent","?, ?","basic",9.9
"10905","N1(CCC(NNC(C)C)CC1)(C)","CC(C)NNC1CCN(C)CC1","InChI=1S/C9H21N3/c1-8(2)10-11-9-4-6-12(3)7-5-9/h8-11H,4-7H2,1-3H3","OJFOMASDMLDWEX-UHFFFAOYSA-N","?, ?","20","potentiometric","a2/apparent","?, ?","basic",9.07
"16899","O2(C1(=C(C=CC=C1)CNC(CNCC3(=C(OCC2)C=CC=C3))C))","CC1CNCC2C=CC=CC=2OCCOC2C=CC=CC=2CN1","InChI=1S/C19H24N2O2/c1-15-12-20-13-16-6-2-4-8-18(16)22-10-11-23-19-9-5-3-7-17(19)14-21-15/h2-9,15,20-21H,10-14H2,1H3","LBHNBLPAIJTOCY-UHFFFAOYSA-N","?, ?","25","potentiometric","b1/apparent","HN%+&-H, HN%+&-H","basic",9.41
"17184","[O-]C1(=[NH+]C=CC=2(C1=CN=C3(C=2C=CC=C3)))","OC1=NC=CC2C1=CN=C1C=CC=CC1=2","InChI=1S/C12H8N2O/c15-12-10-7-14-11-4-2-1-3-9(11)8(10)5-6-13-12/h1-7H,(H,13,15)","ULIAUQBOGQCMQM-UHFFFAOYSA-N","?, ?","21","mean from 2","a1/apparent","?, ?","basic",11.35
"14569","O=C([O-])C([NH3+])CC=1(N=CNC=1)","N=C(CC1=CNC=N1)C(O)O","InChI=1S/C6H9N3O2/c7-5(6(10)11)1-4-2-8-3-9-4/h2-3,6-7,10-11H,1H2,(H,8,9)","NNHHIYMRANOWMX-UHFFFAOYSA-N","?, ?, ?, ?, ?, ?, ?, ?","25","mean from 3","a2/apparent","?, N+H,NH2+H, ?, N(1+)-H, ?, ?, ?, N(1+)-H","basic",9.21
"16281","O=C1(N(C(=O)CC1N)CCCCC([NH3+])C(=O)[O-])","N=C1CC(=O)N(CCCCC(=N)C(O)O)C1O","InChI=1S/C10H17N3O4/c11-6(10(16)17)3-1-2-4-13-8(14)5-7(12)9(13)15/h9-12,15-17H,1-5H2","GSBZIUGMPYNKER-UHFFFAOYSA-N","?, ?","20","potentiometric","a2/apparent","?, ?","basic",9.5
"12698","N(CCNC)(CCN)C","CNCCN(C)CCN","InChI=1S/C6H17N3/c1-8-4-6-9(2)5-3-7/h8H,3-7H2,1-2H3","BYWDOHJOAPKMOF-UHFFFAOYSA-N","?, ?, ?","25","potentiometric","b3/thermodynamic","ammonium, ammonium, ammonium","basic",10.24
"12376","N1(CCCCC1)(CCN2(CCCCC2))","C(CN1CCCCC1)N1CCCCC1","InChI=1S/C12H24N2/c1-3-7-13(8-4-1)11-12-14-9-5-2-6-10-14/h1-12H2","UYMQPNRUQXPLCY-UHFFFAOYSA-N","?, ?","25","mean from 2","a1/thermodynamic","NH+, NH+","basic",9.43
"12700","N(CCNCCN)(C)C","CN(C)CCNCCN","InChI=1S/C6H17N3/c1-9(2)6-5-8-4-3-7/h8H,3-7H2,1-2H3","HLTMVWQXGLNLCU-UHFFFAOYSA-N","?, ?, ?","25","potentiometric","b3/thermodynamic","ammonium, ammonium, ammonium","basic",9.91
"15726","N1(=N[N-]C(=N1)CCNCCNCCC2(=NN=N[N-]2))","C(CNCCNCCC1N=NNN=1)C1N=NNN=1","InChI=1S/C8H16N10/c1(7-11-15-16-12-7)3-9-5-6-10-4-2-8-13-17-18-14-8/h9-10H,1-6H2,(H,11,12,15,16)(H,13,14,17,18)","LJRGMECPKYJSFE-UHFFFAOYSA-N","?, ?","20","potentiometric","a4/thermodynamic","H, H","basic",9.33
"15667","N=2(C(C1(=CC=C(N(C=NC(C)C)C)C=C1))=CNC=2)","CC(C)N=CN(C)C1C=CC(=CC=1)C1=CNC=N1","InChI=1S/C14H18N4/c1-11(2)17-10-18(3)13-6-4-12(5-7-13)14-8-15-9-16-14/h4-11H,1-3H3,(H,15,16)","DPUWGXKFRRKKPQ-UHFFFAOYSA-N","?, ?","25","potentiometric","a1/apparent","NH(1+), NH(1+)","basic",10.41